# vtk DataFile Version 3.0
# Dislocation lines converted from MoDELib file
ASCII
DATASET UNSTRUCTURED_GRID
POINTS 2434 double
-1.429999999999855e+00  6.192081637058740e+02 -2.918975276816622e+03
-1.429999999999864e+00 -6.192081637058660e+02 -2.918975276816622e+03
-1.429999999999864e+00  0.000000000000000e+00 -2.918975276816622e+03
-1.430000000000189e+00  0.000000000000000e+00  2.918975276816619e+03
-1.430000000000189e+00 -6.192081637058667e+02  2.918975276816619e+03
-1.430000000000180e+00  6.192081637058732e+02  2.918975276816619e+03
-4.784632664223203e+02  2.307130707777105e-06 -2.918975276816622e+03
-4.780850489172198e+02 -6.130773898077932e+00 -2.918975276816622e+03
-4.795221618062878e+02 -1.220720233107814e+01 -2.918975276816622e+03
-4.786530702735207e+02 -1.839169244260831e+01 -2.918975276816622e+03
-4.795969472260298e+02 -2.452349776811978e+01 -2.918975276816622e+03
-4.791668351498496e+02 -3.068743593969562e+01 -2.918975276816622e+03
-4.803304030367892e+02 -3.678464338846760e+01 -2.918975276816622e+03
-4.804742204208978e+02 -4.288345420035746e+01 -2.918975276816622e+03
-4.821082396850522e+02 -4.904619118462345e+01 -2.918975276816622e+03
-4.818582352737141e+02 -5.520061811267537e+01 -2.918975276816622e+03
-4.828009835974829e+02 -6.125168927648227e+01 -2.918975276816622e+03
-4.825792797018036e+02 -6.744618520855560e+01 -2.918975276816622e+03
-4.835001594806406e+02 -7.356928677693517e+01 -2.918975276816622e+03
-4.826561437447776e+02 -7.970008094247164e+01 -2.918975276816622e+03
-4.832122039869510e+02 -8.583106591774889e+01 -2.918975276816622e+03
-4.825127232836116e+02 -9.196109900358064e+01 -2.918975276816622e+03
-4.837413505261869e+02 -9.809238236924691e+01 -2.918975276816622e+03
-4.825169197144699e+02 -1.042231562673248e+02 -2.918975276816622e+03
-4.833703838677654e+02 -1.103539301654028e+02 -2.918975276816622e+03
-4.824683026690595e+02 -1.164848183851674e+02 -2.918975276816622e+03
-4.832690746954430e+02 -1.226154779615586e+02 -2.918975276816622e+03
-4.823667590466733e+02 -1.287462518596366e+02 -2.918975276816622e+03
-4.835962371033946e+02 -1.348785614625923e+02 -2.918975276816622e+03
-4.828238669672850e+02 -1.410115176863414e+02 -2.918975276816622e+03
-4.840100495405581e+02 -1.471385735538704e+02 -2.918975276816622e+03
-4.833191874260730e+02 -1.532693474519483e+02 -2.918975276816622e+03
-4.848850616911347e+02 -1.594000361965617e+02 -2.918975276816622e+03
-4.848562063701447e+02 -1.655308952481035e+02 -2.918975276816622e+03
-4.839333489735265e+02 -1.716616691461815e+02 -2.918975276816622e+03
-4.840625076153484e+02 -1.777924430442594e+02 -2.918975276816622e+03
-4.832352774061541e+02 -1.839232169423373e+02 -2.918975276816622e+03
-4.838634389120643e+02 -1.900534635485310e+02 -2.918975276816622e+03
-4.826926911109857e+02 -1.961847647384932e+02 -2.918975276816622e+03
-4.831626743548076e+02 -2.023155571449389e+02 -2.918975276816622e+03
-4.840596016729384e+02 -2.084463125346491e+02 -2.918975276816622e+03
-4.823647516513680e+02 -2.145887478606696e+02 -2.918975276816622e+03
-4.838547681552282e+02 -2.207095948759200e+02 -2.918975276816622e+03
-4.822768017218091e+02 -2.268386342288829e+02 -2.918975276816622e+03
-4.835930970928861e+02 -2.329707853906014e+02 -2.918975276816622e+03
-4.831614799610702e+02 -2.390392943256707e+02 -2.918975276816622e+03
-4.848118294547862e+02 -2.452314296173859e+02 -2.918975276816622e+03
-4.841215481014819e+02 -2.513625796886284e+02 -2.918975276816622e+03
-4.852545540332996e+02 -2.574925037192725e+02 -2.918975276816622e+03
-4.845749824823807e+02 -2.636232776173504e+02 -2.918975276816622e+03
-4.857637807975649e+02 -2.697633855635240e+02 -2.918975276816622e+03
-4.858094807783655e+02 -2.758899278049619e+02 -2.918975276816622e+03
-4.853744316659441e+02 -2.820155993115842e+02 -2.918975276816622e+03
-4.864252613704973e+02 -2.881459483940930e+02 -2.918975276816622e+03
-4.855425446361824e+02 -2.942771471077401e+02 -2.918975276816622e+03
-4.864751132905263e+02 -3.004068354244168e+02 -2.918975276816622e+03
-4.866024097377961e+02 -3.065386949038960e+02 -2.918975276816622e+03
-4.877896317134263e+02 -3.126694688019740e+02 -2.918975276816622e+03
-4.870392641440254e+02 -3.188008077338579e+02 -2.918975276816622e+03
-4.886681054199674e+02 -3.249312885760959e+02 -2.918975276816622e+03
-4.881713024161513e+02 -3.310617904962076e+02 -2.918975276816622e+03
-4.886454482486786e+02 -3.371914500647501e+02 -2.918975276816622e+03
-4.903594663168768e+02 -3.433245851776332e+02 -2.918975276816622e+03
-4.893486542861842e+02 -3.494552208318866e+02 -2.918975276816622e+03
-4.904965346370703e+02 -3.555848860885195e+02 -2.918975276816622e+03
-4.899900636112771e+02 -3.617157669924052e+02 -2.918975276816622e+03
-4.915316815626766e+02 -3.678464412722216e+02 -2.918975276816622e+03
-4.905942398414080e+02 -3.739767420502393e+02 -2.918975276816622e+03
-4.927337801175315e+02 -3.801068582789961e+02 -2.918975276816622e+03
-4.933967531988941e+02 -3.862387555789090e+02 -2.918975276816622e+03
-4.928714490213779e+02 -3.923695294769871e+02 -2.918975276816622e+03
-4.942499561119454e+02 -3.985007068052626e+02 -2.918975276816622e+03
-4.942645314895285e+02 -4.046310772731430e+02 -2.918975276816622e+03
-4.959370772985614e+02 -4.107620085633882e+02 -2.918975276816622e+03
-4.949772423576237e+02 -4.168897355246257e+02 -2.918975276816622e+03
-4.965189603830087e+02 -4.230237188457251e+02 -2.918975276816622e+03
-4.965229069185559e+02 -4.291541728654546e+02 -2.918975276816622e+03
-4.962696722640949e+02 -4.352848978208811e+02 -2.918975276816622e+03
-4.976762694357743e+02 -4.414157206616106e+02 -2.918975276816622e+03
-4.985729728745531e+02 -4.475464945596885e+02 -2.918975276816622e+03
-4.984041073838563e+02 -4.537255562240970e+02 -2.918975276816622e+03
-5.000124258250707e+02 -4.598041183711089e+02 -2.918975276816622e+03
-4.994582827746329e+02 -4.659388162539221e+02 -2.918975276816622e+03
-5.014179113189798e+02 -4.720706449136103e+02 -2.918975276816622e+03
-5.008264906830856e+02 -4.781995346657566e+02 -2.918975276816622e+03
-5.028427577807288e+02 -4.843311379481552e+02 -2.918975276816622e+03
-5.027727253494297e+02 -4.904619118462332e+02 -2.918975276816622e+03
-5.026122344622994e+02 -4.965926857443111e+02 -2.918975276816622e+03
-5.034884264818908e+02 -5.027241810285263e+02 -2.918975276816622e+03
-5.031384738550739e+02 -5.088542335404670e+02 -2.918975276816622e+03
-5.041956976082163e+02 -5.149850074385452e+02 -2.918975276816622e+03
-5.038506737371562e+02 -5.211157813366231e+02 -2.918975276816622e+03
-5.030409337596703e+02 -5.272468576356799e+02 -2.918975276816622e+03
-5.036487510471388e+02 -5.333818024765861e+02 -2.918975276816622e+03
-5.033041835060902e+02 -5.395079166377234e+02 -2.918975276816622e+03
-5.028755133869092e+02 -5.456145935863320e+02 -2.918975276816622e+03
-5.035294400045066e+02 -5.517696508270126e+02 -2.918975276816622e+03
-5.030283725102900e+02 -5.579004247250906e+02 -2.918975276816622e+03
-5.038412721920693e+02 -5.640311986231686e+02 -2.918975276816622e+03
-5.029515959908197e+02 -5.701620410038496e+02 -2.918975276816622e+03
-5.039994782796739e+02 -5.762927464193242e+02 -2.918975276816622e+03
-5.030997808815493e+02 -5.824235203174022e+02 -2.918975276816622e+03
-5.045077340803855e+02 -5.885542942154801e+02 -2.918975276816622e+03
-5.046132969408740e+02 -5.946850681135581e+02 -2.918975276816622e+03
-5.033139455175637e+02 -6.008175379793013e+02 -2.918975276816622e+03
-5.038128803043662e+02 -6.069479575067154e+02 -2.918975276816622e+03
-5.036116411814156e+02 -6.130764791859250e+02 -2.918975276816622e+03
-5.038229800789891e+02 -6.192081637058734e+02 -2.918975276816622e+03
-5.038229800789891e+02  6.192081637058737e+02 -2.918975276816622e+03
-5.040343084116749e+02  6.130767857104800e+02 -2.918975276816622e+03
-5.028877714439207e+02  6.069468304516863e+02 -2.918975276816622e+03
-5.032462343130447e+02  6.008149814982318e+02 -2.918975276816622e+03
-5.021772079517150e+02  5.946863234305528e+02 -2.918975276816622e+03
-5.023044598096516e+02  5.885542296339188e+02 -2.918975276816622e+03
-5.009631034066524e+02  5.824235203174019e+02 -2.918975276816622e+03
-5.014597797828590e+02  5.762927464193239e+02 -2.918975276816622e+03
-4.993385685361770e+02  5.701619725212468e+02 -2.918975276816622e+03
-4.991366629401509e+02  5.640311986231688e+02 -2.918975276816622e+03
-4.972411918404757e+02  5.579004247250908e+02 -2.918975276816622e+03
-4.982450357295832e+02  5.517696508270124e+02 -2.918975276816622e+03
-4.976167996817311e+02  5.456388769289343e+02 -2.918975276816622e+03
-4.964401935488120e+02  5.395081030308563e+02 -2.918975276816622e+03
-4.965769887418588e+02  5.333773291327784e+02 -2.918975276816622e+03
-4.948264539773226e+02  5.272466844141368e+02 -2.918975276816622e+03
-4.933637849855240e+02  5.211157813366234e+02 -2.918975276816622e+03
-4.948446840180724e+02  5.149850074385453e+02 -2.918975276816622e+03
-4.941901485272203e+02  5.088644563511338e+02 -2.918975276816622e+03
-4.945841408652015e+02  5.027234596423888e+02 -2.918975276816622e+03
-4.953716947667800e+02  4.965925269857784e+02 -2.918975276816622e+03
-4.942053789937764e+02  4.904619118462329e+02 -2.918975276816622e+03
-4.942232463214300e+02  4.843311379481549e+02 -2.918975276816622e+03
-4.950780780051603e+02  4.782003640500778e+02 -2.918975276816622e+03
-4.936553273775464e+02  4.720695901519998e+02 -2.918975276816622e+03
-4.944348331266461e+02  4.659388162539213e+02 -2.918975276816622e+03
-4.938611704884892e+02  4.598080423558433e+02 -2.918975276816622e+03
-4.934546192251705e+02  4.536772684577654e+02 -2.918975276816622e+03
-4.944592859888244e+02  4.475459898487644e+02 -2.918975276816622e+03
-4.934307761251013e+02  4.414144206687987e+02 -2.918975276816622e+03
-4.939220861463694e+02  4.352799405316537e+02 -2.918975276816622e+03
-4.931569965980312e+02  4.291612456487301e+02 -2.918975276816622e+03
-4.940457736179139e+02  4.230233989673761e+02 -2.918975276816622e+03
-4.930290941838419e+02  4.168917684636393e+02 -2.918975276816622e+03
-4.936534816862844e+02  4.107618511712202e+02 -2.918975276816622e+03
[...]
POINT_DATA 2434
VECTORS PK_force double
0.000000000000000e+00 0.000000000000000e+00 0.000000000000000e+00
0.000000000000000e+00 0.000000000000000e+00 0.000000000000000e+00
0.000000000000000e+00 0.000000000000000e+00 0.000000000000000e+00
0.000000000000000e+00 0.000000000000000e+00 0.000000000000000e+00
0.000000000000000e+00 0.000000000000000e+00 0.000000000000000e+00
0.000000000000000e+00 0.000000000000000e+00 0.000000000000000e+00
0.000000000000000e+00 0.000000000000000e+00 0.000000000000000e+00
0.000000000000000e+00 0.000000000000000e+00 0.000000000000000e+00
0.000000000000000e+00 0.000000000000000e+00 0.000000000000000e+00
0.000000000000000e+00 0.000000000000000e+00 0.000000000000000e+00
0.000000000000000e+00 0.000000000000000e+00 0.000000000000000e+00
0.000000000000000e+00 0.000000000000000e+00 0.000000000000000e+00
0.000000000000000e+00 0.000000000000000e+00 0.000000000000000e+00
0.000000000000000e+00 0.000000000000000e+00 0.000000000000000e+00
0.000000000000000e+00 0.000000000000000e+00 0.000000000000000e+00
0.000000000000000e+00 0.000000000000000e+00 0.000000000000000e+00
0.000000000000000e+00 0.000000000000000e+00 0.000000000000000e+00
0.000000000000000e+00 0.000000000000000e+00 0.000000000000000e+00
0.000000000000000e+00 0.000000000000000e+00 0.000000000000000e+00
0.000000000000000e+00 0.000000000000000e+00 0.000000000000000e+00
0.000000000000000e+00 0.000000000000000e+00 0.000000000000000e+00
0.000000000000000e+00 0.000000000000000e+00 0.000000000000000e+00
0.000000000000000e+00 0.000000000000000e+00 0.000000000000000e+00
0.000000000000000e+00 0.000000000000000e+00 0.000000000000000e+00
0.000000000000000e+00 0.000000000000000e+00 0.000000000000000e+00
0.000000000000000e+00 0.000000000000000e+00 0.000000000000000e+00
0.000000000000000e+00 0.000000000000000e+00 0.000000000000000e+00
0.000000000000000e+00 0.000000000000000e+00 0.000000000000000e+00
0.000000000000000e+00 0.000000000000000e+00 0.000000000000000e+00
0.000000000000000e+00 0.000000000000000e+00 0.000000000000000e+00
0.000000000000000e+00 0.000000000000000e+00 0.000000000000000e+00
0.000000000000000e+00 0.000000000000000e+00 0.000000000000000e+00
0.000000000000000e+00 0.000000000000000e+00 0.000000000000000e+00
0.000000000000000e+00 0.000000000000000e+00 0.000000000000000e+00
0.000000000000000e+00 0.000000000000000e+00 0.000000000000000e+00
0.000000000000000e+00 0.000000000000000e+00 0.000000000000000e+00
0.000000000000000e+00 0.000000000000000e+00 0.000000000000000e+00
0.000000000000000e+00 0.000000000000000e+00 0.000000000000000e+00
0.000000000000000e+00 0.000000000000000e+00 0.000000000000000e+00
0.000000000000000e+00 0.000000000000000e+00 0.000000000000000e+00
0.000000000000000e+00 0.000000000000000e+00 0.000000000000000e+00
0.000000000000000e+00 0.000000000000000e+00 0.000000000000000e+00
0.000000000000000e+00 0.000000000000000e+00 0.000000000000000e+00
0.000000000000000e+00 0.000000000000000e+00 0.000000000000000e+00
0.000000000000000e+00 0.000000000000000e+00 0.000000000000000e+00
0.000000000000000e+00 0.000000000000000e+00 0.000000000000000e+00
0.000000000000000e+00 0.000000000000000e+00 0.000000000000000e+00
0.000000000000000e+00 0.000000000000000e+00 0.000000000000000e+00
0.000000000000000e+00 0.000000000000000e+00 0.000000000000000e+00
0.000000000000000e+00 0.000000000000000e+00 0.000000000000000e+00
0.000000000000000e+00 0.000000000000000e+00 0.000000000000000e+00
0.000000000000000e+00 0.000000000000000e+00 0.000000000000000e+00
0.000000000000000e+00 0.000000000000000e+00 0.000000000000000e+00
0.000000000000000e+00 0.000000000000000e+00 0.000000000000000e+00
0.000000000000000e+00 0.000000000000000e+00 0.000000000000000e+00
0.000000000000000e+00 0.000000000000000e+00 0.000000000000000e+00
0.000000000000000e+00 0.000000000000000e+00 0.000000000000000e+00
0.000000000000000e+00 0.000000000000000e+00 0.000000000000000e+00
0.000000000000000e+00 0.000000000000000e+00 0.000000000000000e+00
0.000000000000000e+00 0.000000000000000e+00 0.000000000000000e+00
0.000000000000000e+00 0.000000000000000e+00 0.000000000000000e+00
0.000000000000000e+00 0.000000000000000e+00 0.000000000000000e+00
0.000000000000000e+00 0.000000000000000e+00 0.000000000000000e+00
0.000000000000000e+00 0.000000000000000e+00 0.000000000000000e+00
0.000000000000000e+00 0.000000000000000e+00 0.000000000000000e+00
0.000000000000000e+00 0.000000000000000e+00 0.000000000000000e+00
0.000000000000000e+00 0.000000000000000e+00 0.000000000000000e+00
0.000000000000000e+00 0.000000000000000e+00 0.000000000000000e+00
0.000000000000000e+00 0.000000000000000e+00 0.000000000000000e+00
0.000000000000000e+00 0.000000000000000e+00 0.000000000000000e+00
0.000000000000000e+00 0.000000000000000e+00 0.000000000000000e+00
0.000000000000000e+00 0.000000000000000e+00 0.000000000000000e+00
0.000000000000000e+00 0.000000000000000e+00 0.000000000000000e+00
0.000000000000000e+00 0.000000000000000e+00 0.000000000000000e+00
0.000000000000000e+00 0.000000000000000e+00 0.000000000000000e+00
0.000000000000000e+00 0.000000000000000e+00 0.000000000000000e+00
0.000000000000000e+00 0.000000000000000e+00 0.000000000000000e+00
0.000000000000000e+00 0.000000000000000e+00 0.000000000000000e+00
0.000000000000000e+00 0.000000000000000e+00 0.000000000000000e+00
0.000000000000000e+00 0.000000000000000e+00 0.000000000000000e+00
0.000000000000000e+00 0.000000000000000e+00 0.000000000000000e+00
0.000000000000000e+00 0.000000000000000e+00 0.000000000000000e+00
0.000000000000000e+00 0.000000000000000e+00 0.000000000000000e+00
0.000000000000000e+00 0.000000000000000e+00 0.000000000000000e+00
0.000000000000000e+00 0.000000000000000e+00 0.000000000000000e+00
0.000000000000000e+00 0.000000000000000e+00 0.000000000000000e+00
0.000000000000000e+00 0.000000000000000e+00 0.000000000000000e+00
0.000000000000000e+00 0.000000000000000e+00 0.000000000000000e+00
0.000000000000000e+00 0.000000000000000e+00 0.000000000000000e+00
0.000000000000000e+00 0.000000000000000e+00 0.000000000000000e+00
0.000000000000000e+00 0.000000000000000e+00 0.000000000000000e+00
0.000000000000000e+00 0.000000000000000e+00 0.000000000000000e+00
0.000000000000000e+00 0.000000000000000e+00 0.000000000000000e+00
0.000000000000000e+00 0.000000000000000e+00 0.000000000000000e+00
0.000000000000000e+00 0.000000000000000e+00 0.000000000000000e+00
0.000000000000000e+00 0.000000000000000e+00 0.000000000000000e+00
0.000000000000000e+00 0.000000000000000e+00 0.000000000000000e+00
0.000000000000000e+00 0.000000000000000e+00 0.000000000000000e+00
0.000000000000000e+00 0.000000000000000e+00 0.000000000000000e+00
0.000000000000000e+00 0.000000000000000e+00 0.000000000000000e+00
0.000000000000000e+00 0.000000000000000e+00 0.000000000000000e+00
0.000000000000000e+00 0.000000000000000e+00 0.000000000000000e+00
0.000000000000000e+00 0.000000000000000e+00 0.000000000000000e+00
0.000000000000000e+00 0.000000000000000e+00 0.000000000000000e+00
0.000000000000000e+00 0.000000000000000e+00 0.000000000000000e+00
0.000000000000000e+00 0.000000000000000e+00 0.000000000000000e+00
0.000000000000000e+00 0.000000000000000e+00 0.000000000000000e+00
0.000000000000000e+00 0.000000000000000e+00 0.000000000000000e+00
0.000000000000000e+00 0.000000000000000e+00 0.000000000000000e+00
0.000000000000000e+00 0.000000000000000e+00 0.000000000000000e+00
0.000000000000000e+00 0.000000000000000e+00 0.000000000000000e+00
0.000000000000000e+00 0.000000000000000e+00 0.000000000000000e+00
0.000000000000000e+00 0.000000000000000e+00 0.000000000000000e+00
0.000000000000000e+00 0.000000000000000e+00 0.000000000000000e+00
0.000000000000000e+00 0.000000000000000e+00 0.000000000000000e+00
0.000000000000000e+00 0.000000000000000e+00 0.000000000000000e+00
0.000000000000000e+00 0.000000000000000e+00 0.000000000000000e+00
0.000000000000000e+00 0.000000000000000e+00 0.000000000000000e+00
0.000000000000000e+00 0.000000000000000e+00 0.000000000000000e+00
0.000000000000000e+00 0.000000000000000e+00 0.000000000000000e+00
0.000000000000000e+00 0.000000000000000e+00 0.000000000000000e+00
0.000000000000000e+00 0.000000000000000e+00 0.000000000000000e+00
0.000000000000000e+00 0.000000000000000e+00 0.000000000000000e+00
0.000000000000000e+00 0.000000000000000e+00 0.000000000000000e+00
0.000000000000000e+00 0.000000000000000e+00 0.000000000000000e+00
0.000000000000000e+00 0.000000000000000e+00 0.000000000000000e+00
0.000000000000000e+00 0.000000000000000e+00 0.000000000000000e+00
0.000000000000000e+00 0.000000000000000e+00 0.000000000000000e+00
0.000000000000000e+00 0.000000000000000e+00 0.000000000000000e+00
0.000000000000000e+00 0.000000000000000e+00 0.000000000000000e+00
0.000000000000000e+00 0.000000000000000e+00 0.000000000000000e+00
0.000000000000000e+00 0.000000000000000e+00 0.000000000000000e+00
0.000000000000000e+00 0.000000000000000e+00 0.000000000000000e+00
0.000000000000000e+00 0.000000000000000e+00 0.000000000000000e+00
0.000000000000000e+00 0.000000000000000e+00 0.000000000000000e+00
0.000000000000000e+00 0.000000000000000e+00 0.000000000000000e+00
0.000000000000000e+00 0.000000000000000e+00 0.000000000000000e+00
0.000000000000000e+00 0.000000000000000e+00 0.000000000000000e+00
0.000000000000000e+00 0.000000000000000e+00 0.000000000000000e+00
0.000000000000000e+00 0.000000000000000e+00 0.000000000000000e+00
0.000000000000000e+00 0.000000000000000e+00 0.000000000000000e+00
0.000000000000000e+00 0.000000000000000e+00 0.000000000000000e+00
0.000000000000000e+00 0.000000000000000e+00 0.000000000000000e+00
0.000000000000000e+00 0.000000000000000e+00 0.000000000000000e+00
0.000000000000000e+00 0.000000000000000e+00 0.000000000000000e+00
0.000000000000000e+00 0.000000000000000e+00 0.000000000000000e+00
0.000000000000000e+00 0.000000000000000e+00 0.000000000000000e+00
0.000000000000000e+00 0.000000000000000e+00 0.000000000000000e+00
0.000000000000000e+00 0.000000000000000e+00 0.000000000000000e+00
0.000000000000000e+00 0.000000000000000e+00 0.000000000000000e+00
0.000000000000000e+00 0.000000000000000e+00 0.000000000000000e+00
0.000000000000000e+00 0.000000000000000e+00 0.000000000000000e+00
0.000000000000000e+00 0.000000000000000e+00 0.000000000000000e+00
0.000000000000000e+00 0.000000000000000e+00 0.000000000000000e+00
0.000000000000000e+00 0.000000000000000e+00 0.000000000000000e+00
0.000000000000000e+00 0.000000000000000e+00 0.000000000000000e+00
0.000000000000000e+00 0.000000000000000e+00 0.000000000000000e+00
0.000000000000000e+00 0.000000000000000e+00 0.000000000000000e+00
0.000000000000000e+00 0.000000000000000e+00 0.000000000000000e+00
0.000000000000000e+00 0.000000000000000e+00 0.000000000000000e+00
0.000000000000000e+00 0.000000000000000e+00 0.000000000000000e+00
0.000000000000000e+00 0.000000000000000e+00 0.000000000000000e+00
0.000000000000000e+00 0.000000000000000e+00 0.000000000000000e+00
0.000000000000000e+00 0.000000000000000e+00 0.000000000000000e+00
0.000000000000000e+00 0.000000000000000e+00 0.000000000000000e+00
0.000000000000000e+00 0.000000000000000e+00 0.000000000000000e+00
0.000000000000000e+00 0.000000000000000e+00 0.000000000000000e+00
0.000000000000000e+00 0.000000000000000e+00 0.000000000000000e+00
0.000000000000000e+00 0.000000000000000e+00 0.000000000000000e+00
0.000000000000000e+00 0.000000000000000e+00 0.000000000000000e+00
0.000000000000000e+00 0.000000000000000e+00 0.000000000000000e+00
0.000000000000000e+00 0.000000000000000e+00 0.000000000000000e+00
0.000000000000000e+00 0.000000000000000e+00 0.000000000000000e+00
0.000000000000000e+00 0.000000000000000e+00 0.000000000000000e+00
0.000000000000000e+00 0.000000000000000e+00 0.000000000000000e+00
0.000000000000000e+00 0.000000000000000e+00 0.000000000000000e+00
0.000000000000000e+00 0.000000000000000e+00 0.000000000000000e+00
0.000000000000000e+00 0.000000000000000e+00 0.000000000000000e+00
0.000000000000000e+00 0.000000000000000e+00 0.000000000000000e+00
0.000000000000000e+00 0.000000000000000e+00 0.000000000000000e+00
0.000000000000000e+00 0.000000000000000e+00 0.000000000000000e+00
0.000000000000000e+00 0.000000000000000e+00 0.000000000000000e+00
0.000000000000000e+00 0.000000000000000e+00 0.000000000000000e+00
0.000000000000000e+00 0.000000000000000e+00 0.000000000000000e+00
0.000000000000000e+00 0.000000000000000e+00 0.000000000000000e+00
0.000000000000000e+00 0.000000000000000e+00 0.000000000000000e+00
0.000000000000000e+00 0.000000000000000e+00 0.000000000000000e+00
0.000000000000000e+00 0.000000000000000e+00 0.000000000000000e+00
0.000000000000000e+00 0.000000000000000e+00 0.000000000000000e+00
0.000000000000000e+00 0.000000000000000e+00 0.000000000000000e+00
0.000000000000000e+00 0.000000000000000e+00 0.000000000000000e+00
0.000000000000000e+00 0.000000000000000e+00 0.000000000000000e+00
0.000000000000000e+00 0.000000000000000e+00 0.000000000000000e+00
0.000000000000000e+00 0.000000000000000e+00 0.000000000000000e+00
0.000000000000000e+00 0.000000000000000e+00 0.000000000000000e+00
0.000000000000000e+00 0.000000000000000e+00 0.000000000000000e+00
0.000000000000000e+00 0.000000000000000e+00 0.000000000000000e+00
0.000000000000000e+00 0.000000000000000e+00 0.000000000000000e+00
0.000000000000000e+00 0.000000000000000e+00 0.000000000000000e+00
0.000000000000000e+00 0.000000000000000e+00 0.000000000000000e+00
0.000000000000000e+00 0.000000000000000e+00 0.000000000000000e+00
0.000000000000000e+00 0.000000000000000e+00 0.000000000000000e+00
0.000000000000000e+00 0.000000000000000e+00 0.000000000000000e+00
0.000000000000000e+00 0.000000000000000e+00 0.000000000000000e+00
0.000000000000000e+00 0.000000000000000e+00 0.000000000000000e+00
0.000000000000000e+00 0.000000000000000e+00 0.000000000000000e+00
0.000000000000000e+00 0.000000000000000e+00 0.000000000000000e+00
0.000000000000000e+00 0.000000000000000e+00 0.000000000000000e+00
0.000000000000000e+00 0.000000000000000e+00 0.000000000000000e+00
0.000000000000000e+00 0.000000000000000e+00 0.000000000000000e+00
0.000000000000000e+00 0.000000000000000e+00 0.000000000000000e+00
0.000000000000000e+00 0.000000000000000e+00 0.000000000000000e+00
0.000000000000000e+00 0.000000000000000e+00 0.000000000000000e+00
0.000000000000000e+00 0.000000000000000e+00 0.000000000000000e+00
0.000000000000000e+00 0.000000000000000e+00 0.000000000000000e+00
0.000000000000000e+00 0.000000000000000e+00 0.000000000000000e+00
0.000000000000000e+00 0.000000000000000e+00 0.000000000000000e+00
0.000000000000000e+00 0.000000000000000e+00 0.000000000000000e+00
0.000000000000000e+00 0.000000000000000e+00 0.000000000000000e+00
0.000000000000000e+00 0.000000000000000e+00 0.000000000000000e+00
0.000000000000000e+00 0.000000000000000e+00 0.000000000000000e+00
0.000000000000000e+00 0.000000000000000e+00 0.000000000000000e+00
0.000000000000000e+00 0.000000000000000e+00 0.000000000000000e+00
0.000000000000000e+00 0.000000000000000e+00 0.000000000000000e+00
0.000000000000000e+00 0.000000000000000e+00 0.000000000000000e+00
0.000000000000000e+00 0.000000000000000e+00 0.000000000000000e+00
0.000000000000000e+00 0.000000000000000e+00 0.000000000000000e+00
0.000000000000000e+00 0.000000000000000e+00 0.000000000000000e+00
0.000000000000000e+00 0.000000000000000e+00 0.000000000000000e+00
0.000000000000000e+00 0.000000000000000e+00 0.000000000000000e+00
0.000000000000000e+00 0.000000000000000e+00 0.000000000000000e+00
0.000000000000000e+00 0.000000000000000e+00 0.000000000000000e+00
0.000000000000000e+00 0.000000000000000e+00 0.000000000000000e+00
0.000000000000000e+00 0.000000000000000e+00 0.000000000000000e+00
0.000000000000000e+00 0.000000000000000e+00 0.000000000000000e+00
0.000000000000000e+00 0.000000000000000e+00 0.000000000000000e+00
0.000000000000000e+00 0.000000000000000e+00 0.000000000000000e+00
0.000000000000000e+00 0.000000000000000e+00 0.000000000000000e+00
0.000000000000000e+00 0.000000000000000e+00 0.000000000000000e+00
0.000000000000000e+00 0.000000000000000e+00 0.000000000000000e+00
0.000000000000000e+00 0.000000000000000e+00 0.000000000000000e+00
0.000000000000000e+00 0.000000000000000e+00 0.000000000000000e+00
0.000000000000000e+00 0.000000000000000e+00 0.000000000000000e+00
0.000000000000000e+00 0.000000000000000e+00 0.000000000000000e+00
0.000000000000000e+00 0.000000000000000e+00 0.000000000000000e+00
0.000000000000000e+00 0.000000000000000e+00 0.000000000000000e+00
0.000000000000000e+00 0.000000000000000e+00 0.000000000000000e+00
0.000000000000000e+00 0.000000000000000e+00 0.000000000000000e+00
0.000000000000000e+00 0.000000000000000e+00 0.000000000000000e+00
0.000000000000000e+00 0.000000000000000e+00 0.000000000000000e+00
0.000000000000000e+00 0.000000000000000e+00 0.000000000000000e+00
0.000000000000000e+00 0.000000000000000e+00 0.000000000000000e+00
0.000000000000000e+00 0.000000000000000e+00 0.000000000000000e+00
0.000000000000000e+00 0.000000000000000e+00 0.000000000000000e+00
0.000000000000000e+00 0.000000000000000e+00 0.000000000000000e+00
0.000000000000000e+00 0.000000000000000e+00 0.000000000000000e+00
0.000000000000000e+00 0.000000000000000e+00 0.000000000000000e+00
0.000000000000000e+00 0.000000000000000e+00 0.000000000000000e+00
0.000000000000000e+00 0.000000000000000e+00 0.000000000000000e+00
0.000000000000000e+00 0.000000000000000e+00 0.000000000000000e+00
0.000000000000000e+00 0.000000000000000e+00 0.000000000000000e+00
0.000000000000000e+00 0.000000000000000e+00 0.000000000000000e+00
0.000000000000000e+00 0.000000000000000e+00 0.000000000000000e+00
0.000000000000000e+00 0.000000000000000e+00 0.000000000000000e+00
0.000000000000000e+00 0.000000000000000e+00 0.000000000000000e+00
0.000000000000000e+00 0.000000000000000e+00 0.000000000000000e+00
0.000000000000000e+00 0.000000000000000e+00 0.000000000000000e+00
0.000000000000000e+00 0.000000000000000e+00 0.000000000000000e+00
0.000000000000000e+00 0.000000000000000e+00 0.000000000000000e+00
0.000000000000000e+00 0.000000000000000e+00 0.000000000000000e+00
0.000000000000000e+00 0.000000000000000e+00 0.000000000000000e+00
0.000000000000000e+00 0.000000000000000e+00 0.000000000000000e+00
0.000000000000000e+00 0.000000000000000e+00 0.000000000000000e+00
0.000000000000000e+00 0.000000000000000e+00 0.000000000000000e+00
0.000000000000000e+00 0.000000000000000e+00 0.000000000000000e+00
0.000000000000000e+00 0.000000000000000e+00 0.000000000000000e+00
0.000000000000000e+00 0.000000000000000e+00 0.000000000000000e+00
0.000000000000000e+00 0.000000000000000e+00 0.000000000000000e+00
0.000000000000000e+00 0.000000000000000e+00 0.000000000000000e+00
0.000000000000000e+00 0.000000000000000e+00 0.000000000000000e+00
0.000000000000000e+00 0.000000000000000e+00 0.000000000000000e+00
0.000000000000000e+00 0.000000000000000e+00 0.000000000000000e+00
0.000000000000000e+00 0.000000000000000e+00 0.000000000000000e+00
0.000000000000000e+00 0.000000000000000e+00 0.000000000000000e+00
0.000000000000000e+00 0.000000000000000e+00 0.000000000000000e+00
0.000000000000000e+00 0.000000000000000e+00 0.000000000000000e+00
0.000000000000000e+00 0.000000000000000e+00 0.000000000000000e+00
0.000000000000000e+00 0.000000000000000e+00 0.000000000000000e+00
0.000000000000000e+00 0.000000000000000e+00 0.000000000000000e+00
0.000000000000000e+00 0.000000000000000e+00 0.000000000000000e+00
0.000000000000000e+00 0.000000000000000e+00 0.000000000000000e+00
0.000000000000000e+00 0.000000000000000e+00 0.000000000000000e+00
0.000000000000000e+00 0.000000000000000e+00 0.000000000000000e+00
0.000000000000000e+00 0.000000000000000e+00 0.000000000000000e+00
0.000000000000000e+00 0.000000000000000e+00 0.000000000000000e+00
0.000000000000000e+00 0.000000000000000e+00 0.000000000000000e+00
0.000000000000000e+00 0.000000000000000e+00 0.000000000000000e+00
0.000000000000000e+00 0.000000000000000e+00 0.000000000000000e+00
0.000000000000000e+00 0.000000000000000e+00 0.000000000000000e+00
0.000000000000000e+00 0.000000000000000e+00 0.000000000000000e+00
0.000000000000000e+00 0.000000000000000e+00 0.000000000000000e+00
0.000000000000000e+00 0.000000000000000e+00 0.000000000000000e+00