# vtk DataFile Version 3.0
# Dislocation lines converted from MoDELib file
ASCII
DATASET UNSTRUCTURED_GRID
POINTS 6202 double
-1.429999999999877e+00  3.863858941524650e+02 -2.918975276816622e+03
-1.429999999999897e+00 -3.863858941524674e+02 -2.918975276816622e+03
-1.429999999999897e+00  0.000000000000000e+00 -2.918975276816622e+03
-1.430000000000221e+00  0.000000000000000e+00  2.918975276816619e+03
-1.430000000000221e+00 -3.863858941524674e+02  2.918975276816619e+03
-1.430000000000201e+00  3.863858941524653e+02  2.918975276816619e+03
-1.145430000000000e+03  0.000000000000000e+00 -2.918975276816622e+03
-1.145430000000000e+03 -9.984131631848139e-01 -2.918975276816622e+03
-1.145430000000000e+03 -1.996826326369303e+00 -2.918975276816622e+03
-1.145430000000000e+03 -2.995239489554117e+00 -2.918975276816622e+03
-1.145430000000000e+03 -3.993652652738606e+00 -2.918975276816622e+03
-1.145430000000000e+03 -4.992065815923421e+00 -2.918975276816622e+03
-1.145430000000000e+03 -5.990478979107908e+00 -2.918975276816622e+03
-1.145430000000000e+03 -6.988892142292723e+00 -2.918975276816622e+03
-1.145430000000000e+03 -7.987305305477212e+00 -2.918975276816622e+03
-1.145430000000000e+03 -8.985718468662027e+00 -2.918975276816622e+03
-1.145430000000000e+03 -9.984131631846514e+00 -2.918975276816622e+03
-1.145430000000000e+03 -1.098254479503133e+01 -2.918975276816622e+03
-1.145430000000000e+03 -1.198095795821614e+01 -2.918975276816622e+03
-1.145430000000000e+03 -1.297937112140063e+01 -2.918975276816622e+03
-1.145430000000000e+03 -1.397778428458545e+01 -2.918975276816622e+03
-1.145430000000000e+03 -1.497619744776993e+01 -2.918975276816622e+03
-1.145430000000000e+03 -1.597461061095474e+01 -2.918975276816622e+03
-1.145430000000000e+03 -1.697302377413924e+01 -2.918975276816622e+03
-1.145430000000000e+03 -1.797143693732405e+01 -2.918975276816622e+03
-1.145430000000000e+03 -1.896985010050854e+01 -2.918975276816622e+03
-1.145430000000000e+03 -1.996826326369335e+01 -2.918975276816622e+03
-1.145430000000000e+03 -2.096667642687817e+01 -2.918975276816622e+03
-1.145430000000000e+03 -2.196508959006266e+01 -2.918975276816622e+03
-1.145430000000000e+03 -2.296350275324747e+01 -2.918975276816622e+03
-1.145430000000000e+03 -2.396191591643196e+01 -2.918975276816622e+03
-1.145430000000000e+03 -2.496032907961677e+01 -2.918975276816622e+03
-1.145430000000000e+03 -2.595874224280126e+01 -2.918975276816622e+03
-1.145430000000000e+03 -2.695715540598608e+01 -2.918975276816622e+03
-1.145430000000000e+03 -2.795556856917056e+01 -2.918975276816622e+03
-1.145430000000000e+03 -2.895398173235539e+01 -2.918975276816622e+03
-1.145430000000000e+03 -2.995239489553986e+01 -2.918975276816622e+03
-1.145430000000000e+03 -3.095080805872470e+01 -2.918975276816622e+03
-1.145430000000000e+03 -3.194922122190951e+01 -2.918975276816622e+03
-1.145430000000000e+03 -3.294763438509401e+01 -2.918975276816622e+03
-1.145430000000000e+03 -3.394604754827881e+01 -2.918975276816622e+03
-1.145430000000000e+03 -3.494446071146330e+01 -2.918975276816622e+03
-1.145430000000000e+03 -3.594287387464811e+01 -2.918975276816622e+03
-1.145430000000000e+03 -3.694128703783261e+01 -2.918975276816622e+03
-1.145430000000000e+03 -3.793970020101742e+01 -2.918975276816622e+03
-1.145430000000000e+03 -3.893811336420191e+01 -2.918975276816622e+03
-1.145430000000000e+03 -3.993652652738672e+01 -2.918975276816622e+03
-1.145430000000000e+03 -4.093493969057153e+01 -2.918975276816622e+03
-1.145430000000000e+03 -4.193335285375603e+01 -2.918975276816622e+03
-1.145430000000000e+03 -4.293176601694083e+01 -2.918975276816622e+03
-1.145430000000000e+03 -4.393017918012533e+01 -2.918975276816622e+03
-1.145430000000000e+03 -4.492859234331014e+01 -2.918975276816622e+03
-1.145430000000000e+03 -4.592700550649462e+01 -2.918975276816622e+03
-1.145430000000000e+03 -4.692541866967943e+01 -2.918975276816622e+03
-1.145430000000000e+03 -4.792383183286393e+01 -2.918975276816622e+03
-1.145430000000000e+03 -4.892224499604874e+01 -2.918975276816622e+03
-1.145430000000000e+03 -4.992065815923323e+01 -2.918975276816622e+03
-1.145430000000000e+03 -5.091907132241803e+01 -2.918975276816622e+03
-1.145430000000000e+03 -5.191748448560285e+01 -2.918975276816622e+03
-1.145430000000000e+03 -5.291589764878734e+01 -2.918975276816622e+03
-1.145430000000000e+03 -5.391431081197216e+01 -2.918975276816622e+03
-1.145430000000000e+03 -5.491272397515664e+01 -2.918975276816622e+03
-1.145430000000000e+03 -5.591113713834146e+01 -2.918975276816622e+03
-1.145430000000000e+03 -5.690955030152595e+01 -2.918975276816622e+03
-1.145430000000000e+03 -5.790796346471076e+01 -2.918975276816622e+03
-1.145430000000000e+03 -5.890637662789525e+01 -2.918975276816622e+03
-1.145430000000000e+03 -5.990478979108006e+01 -2.918975276816622e+03
-1.145430000000000e+03 -6.090320295426487e+01 -2.918975276816622e+03
-1.145430000000000e+03 -6.190161611744936e+01 -2.918975276816622e+03
-1.145430000000000e+03 -6.290002928063417e+01 -2.918975276816622e+03
-1.145430000000000e+03 -6.389844244381867e+01 -2.918975276816622e+03
-1.145430000000000e+03 -6.489685560700347e+01 -2.918975276816622e+03
-1.145430000000000e+03 -6.589526877018797e+01 -2.918975276816622e+03
-1.145430000000000e+03 -6.689368193337278e+01 -2.918975276816622e+03
-1.145430000000000e+03 -6.789209509655727e+01 -2.918975276816622e+03
-1.145430000000000e+03 -6.889050825974208e+01 -2.918975276816622e+03
-1.145430000000000e+03 -6.988892142292659e+01 -2.918975276816622e+03
-1.145430000000000e+03 -7.088733458611138e+01 -2.918975276816622e+03
-1.145430000000000e+03 -7.188574774929620e+01 -2.918975276816622e+03
-1.145430000000000e+03 -7.288416091248068e+01 -2.918975276816622e+03
-1.145430000000000e+03 -7.388257407566550e+01 -2.918975276816622e+03
-1.145430000000000e+03 -7.488098723884998e+01 -2.918975276816622e+03
-1.145430000000000e+03 -7.587940040203480e+01 -2.918975276816622e+03
-1.145430000000000e+03 -7.687781356521928e+01 -2.918975276816622e+03
-1.145430000000000e+03 -7.787622672840411e+01 -2.918975276816622e+03
-1.145430000000000e+03 -7.887463989158859e+01 -2.918975276816622e+03
-1.145430000000000e+03 -7.987305305477341e+01 -2.918975276816622e+03
-1.145430000000000e+03 -8.087146621795824e+01 -2.918975276816622e+03
-1.145430000000000e+03 -8.186987938114271e+01 -2.918975276816622e+03
-1.145430000000000e+03 -8.286829254432755e+01 -2.918975276816622e+03
-1.145430000000000e+03 -8.386670570751201e+01 -2.918975276816622e+03
-1.145430000000000e+03 -8.486511887069685e+01 -2.918975276816622e+03
-1.145430000000000e+03 -8.586353203388131e+01 -2.918975276816622e+03
-1.145430000000000e+03 -8.686194519706615e+01 -2.918975276816622e+03
-1.145430000000000e+03 -8.786035836025063e+01 -2.918975276816622e+03
-1.145430000000000e+03 -8.885877152343545e+01 -2.918975276816622e+03
-1.145430000000000e+03 -8.985718468661993e+01 -2.918975276816622e+03
-1.145430000000000e+03 -9.085559784980477e+01 -2.918975276816622e+03
-1.145430000000000e+03 -9.185401101298956e+01 -2.918975276816622e+03
-1.145430000000000e+03 -9.285242417617407e+01 -2.918975276816622e+03
-1.145430000000000e+03 -9.385083733935886e+01 -2.918975276816622e+03
-1.145430000000000e+03 -9.484925050254337e+01 -2.918975276816622e+03
-1.145430000000000e+03 -9.584766366572816e+01 -2.918975276816622e+03
-1.145430000000000e+03 -9.684607682891267e+01 -2.918975276816622e+03
-1.145430000000000e+03 -9.784448999209748e+01 -2.918975276816622e+03
-1.145430000000000e+03 -9.884290315528197e+01 -2.918975276816622e+03
-1.145430000000000e+03 -9.984131631846678e+01 -2.918975276816622e+03
-1.145430000000000e+03 -1.008397294816516e+02 -2.918975276816622e+03
-1.145430000000000e+03 -1.018381426448361e+02 -2.918975276816622e+03
-1.145430000000000e+03 -1.028365558080209e+02 -2.918975276816622e+03
-1.145430000000000e+03 -1.038349689712054e+02 -2.918975276816622e+03
-1.145430000000000e+03 -1.048333821343902e+02 -2.918975276816622e+03
-1.145430000000000e+03 -1.058317952975747e+02 -2.918975276816622e+03
-1.145430000000000e+03 -1.068302084607595e+02 -2.918975276816622e+03
-1.145430000000000e+03 -1.078286216239440e+02 -2.918975276816622e+03
-1.145430000000000e+03 -1.088270347871288e+02 -2.918975276816622e+03
-1.145430000000000e+03 -1.098254479503133e+02 -2.918975276816622e+03
-1.145430000000000e+03 -1.108238611134981e+02 -2.918975276816622e+03
-1.145430000000000e+03 -1.118222742766829e+02 -2.918975276816622e+03
-1.145430000000000e+03 -1.128206874398674e+02 -2.918975276816622e+03
-1.145430000000000e+03 -1.138191006030522e+02 -2.918975276816622e+03
-1.145430000000000e+03 -1.148175137662367e+02 -2.918975276816622e+03
-1.145430000000000e+03 -1.158159269294215e+02 -2.918975276816622e+03
-1.145430000000000e+03 -1.168143400926060e+02 -2.918975276816622e+03
-1.145430000000000e+03 -1.178127532557908e+02 -2.918975276816622e+03
-1.145430000000000e+03 -1.188111664189753e+02 -2.918975276816622e+03
-1.145430000000000e+03 -1.198095795821601e+02 -2.918975276816622e+03
-1.145430000000000e+03 -1.208079927453449e+02 -2.918975276816622e+03
-1.145430000000000e+03 -1.218064059085294e+02 -2.918975276816622e+03
-1.145430000000000e+03 -1.228048190717142e+02 -2.918975276816622e+03
-1.145430000000000e+03 -1.238032322348987e+02 -2.918975276816622e+03
-1.145430000000000e+03 -1.248016453980835e+02 -2.918975276816622e+03
-1.145430000000000e+03 -1.258000585612680e+02 -2.918975276816622e+03
-1.145430000000000e+03 -1.267984717244529e+02 -2.918975276816622e+03
-1.145430000000000e+03 -1.277968848876373e+02 -2.918975276816622e+03
-1.145430000000000e+03 -1.287952980508221e+02 -2.918975276816622e+03
-1.145430000000000e+03 -1.297937112140066e+02 -2.918975276816622e+03
-1.145430000000000e+03 -1.307921243771914e+02 -2.918975276816622e+03
-1.145430000000000e+03 -1.317905375403762e+02 -2.918975276816622e+03
-1.145430000000000e+03 -1.327889507035608e+02 -2.918975276816622e+03
-1.145430000000000e+03 -1.337873638667456e+02 -2.918975276816622e+03
-1.145430000000000e+03 -1.347857770299301e+02 -2.918975276816622e+03
-1.145430000000000e+03 -1.357841901931149e+02 -2.918975276816622e+03
[...]
POINT_DATA 6202
VECTORS PK_force double
0.000000000000000e+00 0.000000000000000e+00 0.000000000000000e+00
0.000000000000000e+00 0.000000000000000e+00 0.000000000000000e+00
0.000000000000000e+00 0.000000000000000e+00 0.000000000000000e+00
0.000000000000000e+00 0.000000000000000e+00 0.000000000000000e+00
0.000000000000000e+00 0.000000000000000e+00 0.000000000000000e+00
0.000000000000000e+00 0.000000000000000e+00 0.000000000000000e+00
0.000000000000000e+00 0.000000000000000e+00 0.000000000000000e+00
0.000000000000000e+00 0.000000000000000e+00 0.000000000000000e+00
0.000000000000000e+00 0.000000000000000e+00 0.000000000000000e+00
0.000000000000000e+00 0.000000000000000e+00 0.000000000000000e+00
0.000000000000000e+00 0.000000000000000e+00 0.000000000000000e+00
0.000000000000000e+00 0.000000000000000e+00 0.000000000000000e+00
0.000000000000000e+00 0.000000000000000e+00 0.000000000000000e+00
0.000000000000000e+00 0.000000000000000e+00 0.000000000000000e+00
0.000000000000000e+00 0.000000000000000e+00 0.000000000000000e+00
0.000000000000000e+00 0.000000000000000e+00 0.000000000000000e+00
0.000000000000000e+00 0.000000000000000e+00 0.000000000000000e+00
0.000000000000000e+00 0.000000000000000e+00 0.000000000000000e+00
0.000000000000000e+00 0.000000000000000e+00 0.000000000000000e+00
0.000000000000000e+00 0.000000000000000e+00 0.000000000000000e+00
0.000000000000000e+00 0.000000000000000e+00 0.000000000000000e+00
0.000000000000000e+00 0.000000000000000e+00 0.000000000000000e+00
0.000000000000000e+00 0.000000000000000e+00 0.000000000000000e+00
0.000000000000000e+00 0.000000000000000e+00 0.000000000000000e+00
0.000000000000000e+00 0.000000000000000e+00 0.000000000000000e+00
0.000000000000000e+00 0.000000000000000e+00 0.000000000000000e+00
0.000000000000000e+00 0.000000000000000e+00 0.000000000000000e+00
0.000000000000000e+00 0.000000000000000e+00 0.000000000000000e+00
0.000000000000000e+00 0.000000000000000e+00 0.000000000000000e+00
0.000000000000000e+00 0.000000000000000e+00 0.000000000000000e+00
0.000000000000000e+00 0.000000000000000e+00 0.000000000000000e+00
0.000000000000000e+00 0.000000000000000e+00 0.000000000000000e+00
0.000000000000000e+00 0.000000000000000e+00 0.000000000000000e+00
0.000000000000000e+00 0.000000000000000e+00 0.000000000000000e+00
0.000000000000000e+00 0.000000000000000e+00 0.000000000000000e+00
0.000000000000000e+00 0.000000000000000e+00 0.000000000000000e+00
0.000000000000000e+00 0.000000000000000e+00 0.000000000000000e+00
0.000000000000000e+00 0.000000000000000e+00 0.000000000000000e+00
0.000000000000000e+00 0.000000000000000e+00 0.000000000000000e+00
0.000000000000000e+00 0.000000000000000e+00 0.000000000000000e+00
0.000000000000000e+00 0.000000000000000e+00 0.000000000000000e+00
0.000000000000000e+00 0.000000000000000e+00 0.000000000000000e+00
0.000000000000000e+00 0.000000000000000e+00 0.000000000000000e+00
0.000000000000000e+00 0.000000000000000e+00 0.000000000000000e+00
0.000000000000000e+00 0.000000000000000e+00 0.000000000000000e+00
0.000000000000000e+00 0.000000000000000e+00 0.000000000000000e+00
0.000000000000000e+00 0.000000000000000e+00 0.000000000000000e+00
0.000000000000000e+00 0.000000000000000e+00 0.000000000000000e+00
0.000000000000000e+00 0.000000000000000e+00 0.000000000000000e+00
0.000000000000000e+00 0.000000000000000e+00 0.000000000000000e+00
0.000000000000000e+00 0.000000000000000e+00 0.000000000000000e+00
0.000000000000000e+00 0.000000000000000e+00 0.000000000000000e+00
0.000000000000000e+00 0.000000000000000e+00 0.000000000000000e+00
0.000000000000000e+00 0.000000000000000e+00 0.000000000000000e+00
0.000000000000000e+00 0.000000000000000e+00 0.000000000000000e+00
0.000000000000000e+00 0.000000000000000e+00 0.000000000000000e+00
0.000000000000000e+00 0.000000000000000e+00 0.000000000000000e+00
0.000000000000000e+00 0.000000000000000e+00 0.000000000000000e+00
0.000000000000000e+00 0.000000000000000e+00 0.000000000000000e+00
0.000000000000000e+00 0.000000000000000e+00 0.000000000000000e+00
0.000000000000000e+00 0.000000000000000e+00 0.000000000000000e+00
0.000000000000000e+00 0.000000000000000e+00 0.000000000000000e+00
0.000000000000000e+00 0.000000000000000e+00 0.000000000000000e+00
0.000000000000000e+00 0.000000000000000e+00 0.000000000000000e+00
0.000000000000000e+00 0.000000000000000e+00 0.000000000000000e+00
0.000000000000000e+00 0.000000000000000e+00 0.000000000000000e+00
0.000000000000000e+00 0.000000000000000e+00 0.000000000000000e+00
0.000000000000000e+00 0.000000000000000e+00 0.000000000000000e+00
0.000000000000000e+00 0.000000000000000e+00 0.000000000000000e+00
0.000000000000000e+00 0.000000000000000e+00 0.000000000000000e+00
0.000000000000000e+00 0.000000000000000e+00 0.000000000000000e+00
0.000000000000000e+00 0.000000000000000e+00 0.000000000000000e+00
0.000000000000000e+00 0.000000000000000e+00 0.000000000000000e+00
0.000000000000000e+00 0.000000000000000e+00 0.000000000000000e+00
0.000000000000000e+00 0.000000000000000e+00 0.000000000000000e+00
0.000000000000000e+00 0.000000000000000e+00 0.000000000000000e+00
0.000000000000000e+00 0.000000000000000e+00 0.000000000000000e+00
0.000000000000000e+00 0.000000000000000e+00 0.000000000000000e+00
0.000000000000000e+00 0.000000000000000e+00 0.000000000000000e+00
0.000000000000000e+00 0.000000000000000e+00 0.000000000000000e+00
0.000000000000000e+00 0.000000000000000e+00 0.000000000000000e+00
0.000000000000000e+00 0.000000000000000e+00 0.000000000000000e+00
0.000000000000000e+00 0.000000000000000e+00 0.000000000000000e+00
0.000000000000000e+00 0.000000000000000e+00 0.000000000000000e+00
0.000000000000000e+00 0.000000000000000e+00 0.000000000000000e+00
0.000000000000000e+00 0.000000000000000e+00 0.000000000000000e+00
0.000000000000000e+00 0.000000000000000e+00 0.000000000000000e+00
0.000000000000000e+00 0.000000000000000e+00 0.000000000000000e+00
0.000000000000000e+00 0.000000000000000e+00 0.000000000000000e+00
0.000000000000000e+00 0.000000000000000e+00 0.000000000000000e+00
0.000000000000000e+00 0.000000000000000e+00 0.000000000000000e+00
0.000000000000000e+00 0.000000000000000e+00 0.000000000000000e+00
0.000000000000000e+00 0.000000000000000e+00 0.000000000000000e+00
0.000000000000000e+00 0.000000000000000e+00 0.000000000000000e+00
0.000000000000000e+00 0.000000000000000e+00 0.000000000000000e+00
0.000000000000000e+00 0.000000000000000e+00 0.000000000000000e+00
0.000000000000000e+00 0.000000000000000e+00 0.000000000000000e+00
0.000000000000000e+00 0.000000000000000e+00 0.000000000000000e+00
0.000000000000000e+00 0.000000000000000e+00 0.000000000000000e+00
0.000000000000000e+00 0.000000000000000e+00 0.000000000000000e+00
0.000000000000000e+00 0.000000000000000e+00 0.000000000000000e+00
0.000000000000000e+00 0.000000000000000e+00 0.000000000000000e+00
0.000000000000000e+00 0.000000000000000e+00 0.000000000000000e+00
0.000000000000000e+00 0.000000000000000e+00 0.000000000000000e+00
0.000000000000000e+00 0.000000000000000e+00 0.000000000000000e+00
0.000000000000000e+00 0.000000000000000e+00 0.000000000000000e+00
0.000000000000000e+00 0.000000000000000e+00 0.000000000000000e+00
0.000000000000000e+00 0.000000000000000e+00 0.000000000000000e+00
0.000000000000000e+00 0.000000000000000e+00 0.000000000000000e+00
0.000000000000000e+00 0.000000000000000e+00 0.000000000000000e+00
0.000000000000000e+00 0.000000000000000e+00 0.000000000000000e+00
0.000000000000000e+00 0.000000000000000e+00 0.000000000000000e+00
0.000000000000000e+00 0.000000000000000e+00 0.000000000000000e+00
0.000000000000000e+00 0.000000000000000e+00 0.000000000000000e+00
0.000000000000000e+00 0.000000000000000e+00 0.000000000000000e+00
0.000000000000000e+00 0.000000000000000e+00 0.000000000000000e+00
0.000000000000000e+00 0.000000000000000e+00 0.000000000000000e+00
0.000000000000000e+00 0.000000000000000e+00 0.000000000000000e+00
0.000000000000000e+00 0.000000000000000e+00 0.000000000000000e+00
0.000000000000000e+00 0.000000000000000e+00 0.000000000000000e+00
0.000000000000000e+00 0.000000000000000e+00 0.000000000000000e+00
0.000000000000000e+00 0.000000000000000e+00 0.000000000000000e+00
0.000000000000000e+00 0.000000000000000e+00 0.000000000000000e+00
0.000000000000000e+00 0.000000000000000e+00 0.000000000000000e+00
0.000000000000000e+00 0.000000000000000e+00 0.000000000000000e+00
0.000000000000000e+00 0.000000000000000e+00 0.000000000000000e+00
0.000000000000000e+00 0.000000000000000e+00 0.000000000000000e+00
0.000000000000000e+00 0.000000000000000e+00 0.000000000000000e+00
0.000000000000000e+00 0.000000000000000e+00 0.000000000000000e+00
0.000000000000000e+00 0.000000000000000e+00 0.000000000000000e+00
0.000000000000000e+00 0.000000000000000e+00 0.000000000000000e+00
0.000000000000000e+00 0.000000000000000e+00 0.000000000000000e+00
0.000000000000000e+00 0.000000000000000e+00 0.000000000000000e+00
0.000000000000000e+00 0.000000000000000e+00 0.000000000000000e+00
0.000000000000000e+00 0.000000000000000e+00 0.000000000000000e+00
0.000000000000000e+00 0.000000000000000e+00 0.000000000000000e+00
0.000000000000000e+00 0.000000000000000e+00 0.000000000000000e+00
0.000000000000000e+00 0.000000000000000e+00 0.000000000000000e+00
0.000000000000000e+00 0.000000000000000e+00 0.000000000000000e+00
0.000000000000000e+00 0.000000000000000e+00 0.000000000000000e+00
0.000000000000000e+00 0.000000000000000e+00 0.000000000000000e+00
0.000000000000000e+00 0.000000000000000e+00 0.000000000000000e+00
0.000000000000000e+00 0.000000000000000e+00 0.000000000000000e+00
0.000000000000000e+00 0.000000000000000e+00 0.000000000000000e+00
0.000000000000000e+00 0.000000000000000e+00 0.000000000000000e+00
0.000000000000000e+00 0.000000000000000e+00 0.000000000000000e+00
0.000000000000000e+00 0.000000000000000e+00 0.000000000000000e+00
0.000000000000000e+00 0.000000000000000e+00 0.000000000000000e+00
0.000000000000000e+00 0.000000000000000e+00 0.000000000000000e+00
0.000000000000000e+00 0.000000000000000e+00 0.000000000000000e+00
0.000000000000000e+00 0.000000000000000e+00 0.000000000000000e+00
0.000000000000000e+00 0.000000000000000e+00 0.000000000000000e+00
0.000000000000000e+00 0.000000000000000e+00 0.000000000000000e+00
0.000000000000000e+00 0.000000000000000e+00 0.000000000000000e+00
0.000000000000000e+00 0.000000000000000e+00 0.000000000000000e+00
0.000000000000000e+00 0.000000000000000e+00 0.000000000000000e+00
0.000000000000000e+00 0.000000000000000e+00 0.000000000000000e+00
0.000000000000000e+00 0.000000000000000e+00 0.000000000000000e+00
0.000000000000000e+00 0.000000000000000e+00 0.000000000000000e+00
0.000000000000000e+00 0.000000000000000e+00 0.000000000000000e+00
0.000000000000000e+00 0.000000000000000e+00 0.000000000000000e+00
0.000000000000000e+00 0.000000000000000e+00 0.000000000000000e+00
0.000000000000000e+00 0.000000000000000e+00 0.000000000000000e+00
0.000000000000000e+00 0.000000000000000e+00 0.000000000000000e+00
0.000000000000000e+00 0.000000000000000e+00 0.000000000000000e+00
0.000000000000000e+00 0.000000000000000e+00 0.000000000000000e+00
0.000000000000000e+00 0.000000000000000e+00 0.000000000000000e+00
0.000000000000000e+00 0.000000000000000e+00 0.000000000000000e+00
0.000000000000000e+00 0.000000000000000e+00 0.000000000000000e+00
0.000000000000000e+00 0.000000000000000e+00 0.000000000000000e+00
0.000000000000000e+00 0.000000000000000e+00 0.000000000000000e+00
0.000000000000000e+00 0.000000000000000e+00 0.000000000000000e+00
0.000000000000000e+00 0.000000000000000e+00 0.000000000000000e+00
0.000000000000000e+00 0.000000000000000e+00 0.000000000000000e+00
0.000000000000000e+00 0.000000000000000e+00 0.000000000000000e+00
0.000000000000000e+00 0.000000000000000e+00 0.000000000000000e+00
0.000000000000000e+00 0.000000000000000e+00 0.000000000000000e+00
0.000000000000000e+00 0.000000000000000e+00 0.000000000000000e+00
0.000000000000000e+00 0.000000000000000e+00 0.000000000000000e+00
0.000000000000000e+00 0.000000000000000e+00 0.000000000000000e+00
0.000000000000000e+00 0.000000000000000e+00 0.000000000000000e+00
0.000000000000000e+00 0.000000000000000e+00 0.000000000000000e+00
0.000000000000000e+00 0.000000000000000e+00 0.000000000000000e+00
0.000000000000000e+00 0.000000000000000e+00 0.000000000000000e+00
0.000000000000000e+00 0.000000000000000e+00 0.000000000000000e+00
0.000000000000000e+00 0.000000000000000e+00 0.000000000000000e+00
0.000000000000000e+00 0.000000000000000e+00 0.000000000000000e+00
0.000000000000000e+00 0.000000000000000e+00 0.000000000000000e+00
0.000000000000000e+00 0.000000000000000e+00 0.000000000000000e+00
0.000000000000000e+00 0.000000000000000e+00 0.000000000000000e+00
0.000000000000000e+00 0.000000000000000e+00 0.000000000000000e+00
0.000000000000000e+00 0.000000000000000e+00 0.000000000000000e+00
0.000000000000000e+00 0.000000000000000e+00 0.000000000000000e+00
0.000000000000000e+00 0.000000000000000e+00 0.000000000000000e+00
0.000000000000000e+00 0.000000000000000e+00 0.000000000000000e+00
0.000000000000000e+00 0.000000000000000e+00 0.000000000000000e+00
0.000000000000000e+00 0.000000000000000e+00 0.000000000000000e+00
0.000000000000000e+00 0.000000000000000e+00 0.000000000000000e+00
0.000000000000000e+00 0.000000000000000e+00 0.000000000000000e+00
0.000000000000000e+00 0.000000000000000e+00 0.000000000000000e+00
0.000000000000000e+00 0.000000000000000e+00 0.000000000000000e+00
0.000000000000000e+00 0.000000000000000e+00 0.000000000000000e+00
0.000000000000000e+00 0.000000000000000e+00 0.000000000000000e+00
0.000000000000000e+00 0.000000000000000e+00 0.000000000000000e+00
0.000000000000000e+00 0.000000000000000e+00 0.000000000000000e+00
0.000000000000000e+00 0.000000000000000e+00 0.000000000000000e+00
0.000000000000000e+00 0.000000000000000e+00 0.000000000000000e+00
0.000000000000000e+00 0.000000000000000e+00 0.000000000000000e+00
0.000000000000000e+00 0.000000000000000e+00 0.000000000000000e+00
0.000000000000000e+00 0.000000000000000e+00 0.000000000000000e+00
0.000000000000000e+00 0.000000000000000e+00 0.000000000000000e+00
0.000000000000000e+00 0.000000000000000e+00 0.000000000000000e+00
0.000000000000000e+00 0.000000000000000e+00 0.000000000000000e+00
0.000000000000000e+00 0.000000000000000e+00 0.000000000000000e+00
0.000000000000000e+00 0.000000000000000e+00 0.000000000000000e+00
0.000000000000000e+00 0.000000000000000e+00 0.000000000000000e+00
0.000000000000000e+00 0.000000000000000e+00 0.000000000000000e+00
0.000000000000000e+00 0.000000000000000e+00 0.000000000000000e+00
0.000000000000000e+00 0.000000000000000e+00 0.000000000000000e+00
0.000000000000000e+00 0.000000000000000e+00 0.000000000000000e+00
0.000000000000000e+00 0.000000000000000e+00 0.000000000000000e+00
0.000000000000000e+00 0.000000000000000e+00 0.000000000000000e+00
0.000000000000000e+00 0.000000000000000e+00 0.000000000000000e+00
0.000000000000000e+00 0.000000000000000e+00 0.000000000000000e+00
0.000000000000000e+00 0.000000000000000e+00 0.000000000000000e+00
0.000000000000000e+00 0.000000000000000e+00 0.000000000000000e+00
0.000000000000000e+00 0.000000000000000e+00 0.000000000000000e+00
0.000000000000000e+00 0.000000000000000e+00 0.000000000000000e+00
0.000000000000000e+00 0.000000000000000e+00 0.000000000000000e+00
0.000000000000000e+00 0.000000000000000e+00 0.000000000000000e+00
0.000000000000000e+00 0.000000000000000e+00 0.000000000000000e+00
0.000000000000000e+00 0.000000000000000e+00 0.000000000000000e+00
0.000000000000000e+00 0.000000000000000e+00 0.000000000000000e+00
0.000000000000000e+00 0.000000000000000e+00 0.000000000000000e+00
0.000000000000000e+00 0.000000000000000e+00 0.000000000000000e+00
0.000000000000000e+00 0.000000000000000e+00 0.000000000000000e+00
0.000000000000000e+00 0.000000000000000e+00 0.000000000000000e+00
0.000000000000000e+00 0.000000000000000e+00 0.000000000000000e+00
0.000000000000000e+00 0.000000000000000e+00 0.000000000000000e+00
0.000000000000000e+00 0.000000000000000e+00 0.000000000000000e+00
0.000000000000000e+00 0.000000000000000e+00 0.000000000000000e+00
0.000000000000000e+00 0.000000000000000e+00 0.000000000000000e+00
0.000000000000000e+00 0.000000000000000e+00 0.000000000000000e+00
0.000000000000000e+00 0.000000000000000e+00 0.000000000000000e+00
0.000000000000000e+00 0.000000000000000e+00 0.000000000000000e+00
0.000000000000000e+00 0.000000000000000e+00 0.000000000000000e+00
0.000000000000000e+00 0.000000000000000e+00 0.000000000000000e+00
0.000000000000000e+00 0.000000000000000e+00 0.000000000000000e+00
0.000000000000000e+00 0.000000000000000e+00 0.000000000000000e+00
0.000000000000000e+00 0.000000000000000e+00 0.000000000000000e+00
0.000000000000000e+00 0.000000000000000e+00 0.000000000000000e+00
0.000000000000000e+00 0.000000000000000e+00 0.000000000000000e+00
0.000000000000000e+00 0.000000000000000e+00 0.000000000000000e+00
0.000000000000000e+00 0.000000000000000e+00 0.000000000000000e+00
0.000000000000000e+00 0.000000000000000e+00 0.000000000000000e+00
0.000000000000000e+00 0.000000000000000e+00 0.000000000000000e+00
0.000000000000000e+00 0.000000000000000e+00 0.000000000000000e+00
0.000000000000000e+00 0.000000000000000e+00 0.000000000000000e+00
0.000000000000000e+00 0.000000000000000e+00 0.000000000000000e+00
0.000000000000000e+00 0.000000000000000e+00 0.000000000000000e+00
0.000000000000000e+00 0.000000000000000e+00 0.000000000000000e+00
0.000000000000000e+00 0.000000000000000e+00 0.000000000000000e+00
0.000000000000000e+00 0.000000000000000e+00 0.000000000000000e+00
0.000000000000000e+00 0.000000000000000e+00 0.000000000000000e+00
0.000000000000000e+00 0.000000000000000e+00 0.000000000000000e+00
0.000000000000000e+00 0.000000000000000e+00 0.000000000000000e+00
0.000000000000000e+00 0.000000000000000e+00 0.000000000000000e+00
0.000000000000000e+00 0.000000000000000e+00 0.000000000000000e+00
0.000000000000000e+00 0.000000000000000e+00 0.000000000000000e+00
0.000000000000000e+00 0.000000000000000e+00 0.000000000000000e+00
0.000000000000000e+00 0.000000000000000e+00 0.000000000000000e+00
0.000000000000000e+00 0.000000000000000e+00 0.000000000000000e+00
0.000000000000000e+00 0.000000000000000e+00 0.000000000000000e+00
0.000000000000000e+00 0.000000000000000e+00 0.000000000000000e+00
0.000000000000000e+00 0.000000000000000e+00 0.000000000000000e+00
0.000000000000000e+00 0.000000000000000e+00 0.000000000000000e+00
0.000000000000000e+00 0.000000000000000e+00 0.000000000000000e+00
0.000000000000000e+00 0.000000000000000e+00 0.000000000000000e+00
0.000000000000000e+00 0.000000000000000e+00 0.000000000000000e+00
0.000000000000000e+00 0.000000000000000e+00 0.000000000000000e+00
0.000000000000000e+00 0.000000000000000e+00 0.000000000000000e+00
0.000000000000000e+00 0.000000000000000e+00 0.000000000000000e+00
0.000000000000000e+00 0.000000000000000e+00 0.000000000000000e+00
0.000000000000000e+00 0.000000000000000e+00 0.000000000000000e+00
0.000000000000000e+00 0.000000000000000e+00 0.000000000000000e+00
0.000000000000000e+00 0.000000000000000e+00 0.000000000000000e+00
0.000000000000000e+00 0.000000000000000e+00 0.000000000000000e+00
0.000000000000000e+00 0.000000000000000e+00 0.000000000000000e+00
0.000000000000000e+00 0.000000000000000e+00 0.000000000000000e+00
0.000000000000000e+00 0.000000000000000e+00 0.000000000000000e+00
0.000000000000000e+00 0.000000000000000e+00 0.000000000000000e+00
0.000000000000000e+00 0.000000000000000e+00 0.000000000000000e+00
0.000000000000000e+00 0.000000000000000e+00 0.000000000000000e+00
0.000000000000000e+00 0.000000000000000e+00 0.000000000000000e+00
0.000000000000000e+00 0.000000000000000e+00 0.000000000000000e+00
0.000000000000000e+00 0.000000000000000e+00 0.000000000000000e+00
0.000000000000000e+00 0.000000000000000e+00 0.000000000000000e+00
0.000000000000000e+00 0.000000000000000e+00 0.000000000000000e+00
0.000000000000000e+00 0.000000000000000e+00 0.000000000000000e+00
0.000000000000000e+00 0.000000000000000e+00 0.000000000000000e+00
0.000000000000000e+00 0.000000000000000e+00 0.000000000000000e+00
0.000000000000000e+00 0.000000000000000e+00 0.000000000000000e+00