# vtk DataFile Version 3.0
# Dislocation lines converted from MoDELib file
ASCII
DATASET UNSTRUCTURED_GRID
POINTS 3211 double
-1.429999999999877e+00  3.863858941524650e+02 -2.918975276816622e+03
-1.429999999999897e+00 -3.863858941524674e+02 -2.918975276816622e+03
-1.429999999999897e+00  0.000000000000000e+00 -2.918975276816622e+03
-1.430000000000221e+00  0.000000000000000e+00  2.918975276816619e+03
-1.430000000000221e+00 -3.863858941524674e+02  2.918975276816619e+03
-1.430000000000201e+00  3.863858941524653e+02  2.918975276816619e+03
-1.148704710690445e+03  1.110505608000001e+00 -2.918975276816622e+03
-1.148671534017670e+03 -9.974581644762019e-01 -2.918975276816622e+03
-1.148640472003025e+03 -1.683569447576565e+00 -2.918975276816622e+03
-1.148609295535230e+03 -3.943957018068647e+00 -2.918975276816622e+03
-1.148599861706170e+03 -4.824970167794643e+00 -2.918975276816622e+03
-1.148141812525308e+03 -6.194335600375085e+00 -2.918975276816622e+03
-1.148659258003432e+03 -8.262973767204691e+00 -2.918975276816622e+03
-1.148735797395628e+03 -1.309936774216570e+01 -2.918975276816622e+03
-1.148562725459869e+03 -1.379337774587339e+01 -2.918975276816622e+03
-1.148577625448426e+03 -1.661774315865765e+01 -2.918975276816622e+03
-1.148554172009025e+03 -2.010674914269741e+01 -2.918975276816622e+03
-1.148529103920405e+03 -2.290145620547251e+01 -2.918975276816622e+03
-1.148294822497620e+03 -2.691635593152746e+01 -2.918975276816622e+03
-1.148248747480592e+03 -2.808144461600657e+01 -2.918975276816622e+03
-1.148371732572593e+03 -3.259787900160995e+01 -2.918975276816622e+03
-1.148207881643575e+03 -3.389973429099231e+01 -2.918975276816622e+03
-1.148191405467903e+03 -3.495163706240215e+01 -2.918975276816622e+03
-1.148270485728968e+03 -3.583882571925587e+01 -2.918975276816622e+03
-1.148097966105632e+03 -3.840523053836106e+01 -2.918975276816622e+03
-1.147865385241528e+03 -3.985808646549890e+01 -2.918975276816622e+03
-1.147967371765270e+03 -4.118087406656527e+01 -2.918975276816622e+03
-1.147899094206759e+03 -4.323116757189651e+01 -2.918975276816622e+03
-1.147703992713221e+03 -4.488123691357938e+01 -2.918975276816622e+03
-1.147514109469387e+03 -4.974787697945357e+01 -2.918975276816622e+03
-1.147466161831073e+03 -5.029718321272414e+01 -2.918975276816622e+03
-1.147372275110301e+03 -5.216232947841129e+01 -2.918975276816622e+03
-1.147144209432599e+03 -5.413202255025336e+01 -2.918975276816622e+03
-1.147110315124742e+03 -5.436083242567311e+01 -2.918975276816622e+03
-1.147295142049720e+03 -5.594584553487652e+01 -2.918975276816622e+03
-1.147457042373712e+03 -5.844946566487417e+01 -2.918975276816622e+03
-1.147569658627848e+03 -6.015569171185061e+01 -2.918975276816622e+03
-1.147560546397781e+03 -6.138741020645665e+01 -2.918975276816622e+03
-1.147597609016841e+03 -6.331680772221639e+01 -2.918975276816622e+03
-1.147663609110699e+03 -6.433881064590891e+01 -2.918975276816622e+03
-1.147683784500266e+03 -6.626794722592665e+01 -2.918975276816622e+03
-1.147708376718444e+03 -6.732262122631934e+01 -2.918975276816622e+03
-1.147704595655578e+03 -6.986785267030852e+01 -2.918975276816622e+03
-1.147791397765113e+03 -7.057630023498025e+01 -2.918975276816622e+03
-1.147723144485929e+03 -7.212708061014993e+01 -2.918975276816622e+03
-1.147831584578926e+03 -7.427599846022879e+01 -2.918975276816622e+03
-1.147727697382670e+03 -7.534619062159722e+01 -2.918975276816622e+03
-1.147852042357169e+03 -7.627032014202344e+01 -2.918975276816622e+03
-1.147726650502990e+03 -7.831632526174367e+01 -2.918975276816622e+03
-1.147861742770761e+03 -8.034240408164422e+01 -2.918975276816622e+03
-1.147747477532291e+03 -8.146089471258310e+01 -2.918975276816622e+03
-1.147846952741106e+03 -8.336548972254505e+01 -2.918975276816622e+03
-1.147754680826797e+03 -8.502258631369608e+01 -2.918975276816622e+03
-1.147864812918311e+03 -8.766730351205956e+01 -2.918975276816622e+03
-1.147758009937278e+03 -8.949354843793482e+01 -2.918975276816622e+03
-1.147737801671529e+03 -9.041116099490792e+01 -2.918975276816622e+03
-1.147754004238523e+03 -9.206986490952126e+01 -2.918975276816622e+03
-1.148083591906527e+03 -9.484000907324526e+01 -2.918975276816622e+03
-1.147678468630301e+03 -9.579719039645985e+01 -2.918975276816622e+03
-1.147682264019600e+03 -9.848681325358346e+01 -2.918975276816622e+03
-1.147700170424764e+03 -1.002936718469557e+02 -2.918975276816622e+03
-1.147789298719281e+03 -1.013748861835832e+02 -2.918975276816622e+03
-1.147649411060738e+03 -1.032468868192472e+02 -2.918975276816622e+03
-1.147605700908462e+03 -1.042225784890338e+02 -2.918975276816622e+03
-1.147600474065548e+03 -1.061756419460138e+02 -2.918975276816622e+03
-1.147704461486429e+03 -1.072256480152294e+02 -2.918975276816622e+03
-1.147518359023707e+03 -1.097123726196995e+02 -2.918975276816622e+03
-1.147509029917953e+03 -1.104753348392639e+02 -2.918975276816622e+03
-1.147444434470039e+03 -1.122527612072557e+02 -2.918975276816622e+03
-1.147557844215433e+03 -1.141955763388693e+02 -2.918975276816622e+03
-1.147398752457414e+03 -1.144135451858777e+02 -2.918975276816622e+03
-1.147476675239806e+03 -1.157903616904485e+02 -2.918975276816622e+03
-1.147456684291191e+03 -1.183216331140699e+02 -2.918975276816622e+03
-1.147501256866535e+03 -1.202028019814167e+02 -2.918975276816622e+03
-1.147466464843443e+03 -1.213363476396607e+02 -2.918975276816622e+03
-1.147485674459767e+03 -1.233322536152281e+02 -2.918975276816622e+03
-1.147471050127345e+03 -1.248385151077688e+02 -2.918975276816622e+03
-1.147429238020923e+03 -1.295935857244529e+02 -2.918975276816622e+03
-1.147409019729192e+03 -1.303458804093068e+02 -2.918975276816622e+03
-1.147405586673623e+03 -1.322133591926346e+02 -2.918975276816622e+03
-1.147343220180674e+03 -1.341647992289988e+02 -2.918975276816622e+03
-1.147318955770472e+03 -1.344732246896910e+02 -2.918975276816622e+03
-1.147424127015734e+03 -1.357687047507992e+02 -2.918975276816622e+03
-1.147438830660350e+03 -1.384018583041881e+02 -2.918975276816622e+03
-1.147579723513169e+03 -1.400567193936394e+02 -2.918975276816622e+03
-1.147507634318483e+03 -1.412646289904491e+02 -2.918975276816622e+03
-1.147573819476915e+03 -1.431717514828688e+02 -2.918975276816622e+03
-1.147578037811246e+03 -1.441304537330803e+02 -2.918975276816622e+03
-1.147723205870854e+03 -1.461374312141081e+02 -2.918975276816622e+03
-1.147613633859322e+03 -1.471566035780198e+02 -2.918975276816622e+03
-1.147720167377139e+03 -1.496408673420203e+02 -2.918975276816622e+03
-1.147699351183660e+03 -1.503465321509367e+02 -2.918975276816622e+03
-1.147814495840254e+03 -1.520365402722426e+02 -2.918975276816622e+03
-1.147836910944574e+03 -1.540321662869486e+02 -2.918975276816622e+03
-1.147848715837169e+03 -1.540838353386414e+02 -2.918975276816622e+03
-1.147829036975572e+03 -1.559662353706375e+02 -2.918975276816622e+03
-1.147859828135550e+03 -1.601736479036215e+02 -2.918975276816622e+03
-1.147876468306247e+03 -1.612317927189912e+02 -2.918975276816622e+03
-1.147875060971416e+03 -1.631945301774060e+02 -2.918975276816622e+03
-1.147908094156425e+03 -1.647396052636779e+02 -2.918975276816622e+03
-1.148012093439389e+03 -1.696035872433501e+02 -2.918975276816622e+03
-1.147800731287908e+03 -1.702535402214397e+02 -2.918975276816622e+03
-1.147973431717982e+03 -1.724231656167401e+02 -2.918975276816622e+03
-1.147979065561746e+03 -1.756627069301312e+02 -2.918975276816622e+03
-1.148037711446925e+03 -1.783141626753529e+02 -2.918975276816622e+03
-1.147980354047300e+03 -1.801815032545636e+02 -2.918975276816622e+03
-1.148078295690146e+03 -1.812669608913091e+02 -2.918975276816622e+03
-1.147951743257028e+03 -1.831557265208906e+02 -2.918975276816622e+03
-1.147972702988857e+03 -1.847076437680689e+02 -2.918975276816622e+03
-1.147947774977719e+03 -1.894904917114663e+02 -2.918975276816622e+03
-1.147929432088699e+03 -1.901322978537083e+02 -2.918975276816622e+03
-1.147959669796334e+03 -1.919341241519411e+02 -2.918975276816622e+03
-1.147940226426317e+03 -1.939070969693689e+02 -2.918975276816622e+03
-1.147941346308184e+03 -1.943040055122122e+02 -2.918975276816622e+03
-1.147907593852536e+03 -1.960461297965305e+02 -2.918975276816622e+03
-1.147957275941549e+03 -2.000635513640571e+02 -2.918975276816622e+03
-1.147951486588423e+03 -2.010777050401269e+02 -2.918975276816622e+03
-1.147959585851052e+03 -2.031104128059272e+02 -2.918975276816622e+03
-1.147947259845637e+03 -2.040601259952210e+02 -2.918975276816622e+03
-1.147961823704155e+03 -2.060314421092134e+02 -2.918975276816622e+03
-1.147958480227622e+03 -2.070732415064210e+02 -2.918975276816622e+03
-1.147955992840110e+03 -2.095861145474458e+02 -2.918975276816622e+03
-1.147953393491867e+03 -2.103973584926055e+02 -2.918975276816622e+03
-1.147945209008655e+03 -2.124252755837124e+02 -2.918975276816622e+03
-1.147927716178907e+03 -2.156061901842401e+02 -2.918975276816622e+03
-1.147885342996562e+03 -2.182326398311809e+02 -2.918975276816622e+03
-1.147853977103968e+03 -2.201112503529725e+02 -2.918975276816622e+03
-1.147833033021335e+03 -2.212135296818167e+02 -2.918975276816622e+03
-1.147782256716634e+03 -2.230830953704128e+02 -2.918975276816622e+03
-1.147755831392877e+03 -2.246472468743808e+02 -2.918975276816622e+03
-1.147574489606112e+03 -2.294677745388056e+02 -2.918975276816622e+03
-1.147521357269192e+03 -2.301955105186142e+02 -2.918975276816622e+03
-1.147431097597883e+03 -2.319938625874176e+02 -2.918975276816622e+03
-1.147255804647828e+03 -2.337606066263611e+02 -2.918975276816622e+03
-1.147244789336637e+03 -2.338308907715042e+02 -2.918975276816622e+03
-1.147519589593893e+03 -2.355404066320192e+02 -2.918975276816622e+03
-1.147575212512065e+03 -2.381234903245389e+02 -2.918975276816622e+03
-1.147708282683943e+03 -2.401278054899745e+02 -2.918975276816622e+03
-1.147688387856334e+03 -2.411847825029205e+02 -2.918975276816622e+03
-1.147847817161130e+03 -2.431487200889674e+02 -2.918975276816622e+03
-1.147768743197478e+03 -2.444625675358301e+02 -2.918975276816622e+03
-1.147890828531792e+03 -2.470270511769999e+02 -2.918975276816622e+03
-1.147895996322294e+03 -2.470742712196313e+02 -2.918975276816622e+03
[...]
POINT_DATA 3211
VECTORS PK_force double
0.000000000000000e+00 0.000000000000000e+00 0.000000000000000e+00
0.000000000000000e+00 0.000000000000000e+00 0.000000000000000e+00
0.000000000000000e+00 0.000000000000000e+00 0.000000000000000e+00
0.000000000000000e+00 0.000000000000000e+00 0.000000000000000e+00
0.000000000000000e+00 0.000000000000000e+00 0.000000000000000e+00
0.000000000000000e+00 0.000000000000000e+00 0.000000000000000e+00
0.000000000000000e+00 0.000000000000000e+00 0.000000000000000e+00
0.000000000000000e+00 0.000000000000000e+00 0.000000000000000e+00
0.000000000000000e+00 0.000000000000000e+00 0.000000000000000e+00
0.000000000000000e+00 0.000000000000000e+00 0.000000000000000e+00
0.000000000000000e+00 0.000000000000000e+00 0.000000000000000e+00
0.000000000000000e+00 0.000000000000000e+00 0.000000000000000e+00
0.000000000000000e+00 0.000000000000000e+00 0.000000000000000e+00
0.000000000000000e+00 0.000000000000000e+00 0.000000000000000e+00
0.000000000000000e+00 0.000000000000000e+00 0.000000000000000e+00
0.000000000000000e+00 0.000000000000000e+00 0.000000000000000e+00
0.000000000000000e+00 0.000000000000000e+00 0.000000000000000e+00
0.000000000000000e+00 0.000000000000000e+00 0.000000000000000e+00
0.000000000000000e+00 0.000000000000000e+00 0.000000000000000e+00
0.000000000000000e+00 0.000000000000000e+00 0.000000000000000e+00
0.000000000000000e+00 0.000000000000000e+00 0.000000000000000e+00
0.000000000000000e+00 0.000000000000000e+00 0.000000000000000e+00
0.000000000000000e+00 0.000000000000000e+00 0.000000000000000e+00
0.000000000000000e+00 0.000000000000000e+00 0.000000000000000e+00
0.000000000000000e+00 0.000000000000000e+00 0.000000000000000e+00
0.000000000000000e+00 0.000000000000000e+00 0.000000000000000e+00
0.000000000000000e+00 0.000000000000000e+00 0.000000000000000e+00
0.000000000000000e+00 0.000000000000000e+00 0.000000000000000e+00
0.000000000000000e+00 0.000000000000000e+00 0.000000000000000e+00
0.000000000000000e+00 0.000000000000000e+00 0.000000000000000e+00
0.000000000000000e+00 0.000000000000000e+00 0.000000000000000e+00
0.000000000000000e+00 0.000000000000000e+00 0.000000000000000e+00
0.000000000000000e+00 0.000000000000000e+00 0.000000000000000e+00
0.000000000000000e+00 0.000000000000000e+00 0.000000000000000e+00
0.000000000000000e+00 0.000000000000000e+00 0.000000000000000e+00
0.000000000000000e+00 0.000000000000000e+00 0.000000000000000e+00
0.000000000000000e+00 0.000000000000000e+00 0.000000000000000e+00
0.000000000000000e+00 0.000000000000000e+00 0.000000000000000e+00
0.000000000000000e+00 0.000000000000000e+00 0.000000000000000e+00
0.000000000000000e+00 0.000000000000000e+00 0.000000000000000e+00
0.000000000000000e+00 0.000000000000000e+00 0.000000000000000e+00
0.000000000000000e+00 0.000000000000000e+00 0.000000000000000e+00
0.000000000000000e+00 0.000000000000000e+00 0.000000000000000e+00
0.000000000000000e+00 0.000000000000000e+00 0.000000000000000e+00
0.000000000000000e+00 0.000000000000000e+00 0.000000000000000e+00
0.000000000000000e+00 0.000000000000000e+00 0.000000000000000e+00
0.000000000000000e+00 0.000000000000000e+00 0.000000000000000e+00
0.000000000000000e+00 0.000000000000000e+00 0.000000000000000e+00
0.000000000000000e+00 0.000000000000000e+00 0.000000000000000e+00
0.000000000000000e+00 0.000000000000000e+00 0.000000000000000e+00
0.000000000000000e+00 0.000000000000000e+00 0.000000000000000e+00
0.000000000000000e+00 0.000000000000000e+00 0.000000000000000e+00
0.000000000000000e+00 0.000000000000000e+00 0.000000000000000e+00
0.000000000000000e+00 0.000000000000000e+00 0.000000000000000e+00
0.000000000000000e+00 0.000000000000000e+00 0.000000000000000e+00
0.000000000000000e+00 0.000000000000000e+00 0.000000000000000e+00
0.000000000000000e+00 0.000000000000000e+00 0.000000000000000e+00
0.000000000000000e+00 0.000000000000000e+00 0.000000000000000e+00
0.000000000000000e+00 0.000000000000000e+00 0.000000000000000e+00
0.000000000000000e+00 0.000000000000000e+00 0.000000000000000e+00
0.000000000000000e+00 0.000000000000000e+00 0.000000000000000e+00
0.000000000000000e+00 0.000000000000000e+00 0.000000000000000e+00
0.000000000000000e+00 0.000000000000000e+00 0.000000000000000e+00
0.000000000000000e+00 0.000000000000000e+00 0.000000000000000e+00
0.000000000000000e+00 0.000000000000000e+00 0.000000000000000e+00
0.000000000000000e+00 0.000000000000000e+00 0.000000000000000e+00
0.000000000000000e+00 0.000000000000000e+00 0.000000000000000e+00
0.000000000000000e+00 0.000000000000000e+00 0.000000000000000e+00
0.000000000000000e+00 0.000000000000000e+00 0.000000000000000e+00
0.000000000000000e+00 0.000000000000000e+00 0.000000000000000e+00
0.000000000000000e+00 0.000000000000000e+00 0.000000000000000e+00
0.000000000000000e+00 0.000000000000000e+00 0.000000000000000e+00
0.000000000000000e+00 0.000000000000000e+00 0.000000000000000e+00
0.000000000000000e+00 0.000000000000000e+00 0.000000000000000e+00
0.000000000000000e+00 0.000000000000000e+00 0.000000000000000e+00
0.000000000000000e+00 0.000000000000000e+00 0.000000000000000e+00
0.000000000000000e+00 0.000000000000000e+00 0.000000000000000e+00
0.000000000000000e+00 0.000000000000000e+00 0.000000000000000e+00
0.000000000000000e+00 0.000000000000000e+00 0.000000000000000e+00
0.000000000000000e+00 0.000000000000000e+00 0.000000000000000e+00
0.000000000000000e+00 0.000000000000000e+00 0.000000000000000e+00
0.000000000000000e+00 0.000000000000000e+00 0.000000000000000e+00
0.000000000000000e+00 0.000000000000000e+00 0.000000000000000e+00
0.000000000000000e+00 0.000000000000000e+00 0.000000000000000e+00
0.000000000000000e+00 0.000000000000000e+00 0.000000000000000e+00
0.000000000000000e+00 0.000000000000000e+00 0.000000000000000e+00
0.000000000000000e+00 0.000000000000000e+00 0.000000000000000e+00
0.000000000000000e+00 0.000000000000000e+00 0.000000000000000e+00
0.000000000000000e+00 0.000000000000000e+00 0.000000000000000e+00
0.000000000000000e+00 0.000000000000000e+00 0.000000000000000e+00
0.000000000000000e+00 0.000000000000000e+00 0.000000000000000e+00
0.000000000000000e+00 0.000000000000000e+00 0.000000000000000e+00
0.000000000000000e+00 0.000000000000000e+00 0.000000000000000e+00
0.000000000000000e+00 0.000000000000000e+00 0.000000000000000e+00
0.000000000000000e+00 0.000000000000000e+00 0.000000000000000e+00
0.000000000000000e+00 0.000000000000000e+00 0.000000000000000e+00
0.000000000000000e+00 0.000000000000000e+00 0.000000000000000e+00
0.000000000000000e+00 0.000000000000000e+00 0.000000000000000e+00
0.000000000000000e+00 0.000000000000000e+00 0.000000000000000e+00
0.000000000000000e+00 0.000000000000000e+00 0.000000000000000e+00
0.000000000000000e+00 0.000000000000000e+00 0.000000000000000e+00
0.000000000000000e+00 0.000000000000000e+00 0.000000000000000e+00
0.000000000000000e+00 0.000000000000000e+00 0.000000000000000e+00
0.000000000000000e+00 0.000000000000000e+00 0.000000000000000e+00
0.000000000000000e+00 0.000000000000000e+00 0.000000000000000e+00
0.000000000000000e+00 0.000000000000000e+00 0.000000000000000e+00
0.000000000000000e+00 0.000000000000000e+00 0.000000000000000e+00
0.000000000000000e+00 0.000000000000000e+00 0.000000000000000e+00
0.000000000000000e+00 0.000000000000000e+00 0.000000000000000e+00
0.000000000000000e+00 0.000000000000000e+00 0.000000000000000e+00
0.000000000000000e+00 0.000000000000000e+00 0.000000000000000e+00
0.000000000000000e+00 0.000000000000000e+00 0.000000000000000e+00
0.000000000000000e+00 0.000000000000000e+00 0.000000000000000e+00
0.000000000000000e+00 0.000000000000000e+00 0.000000000000000e+00
0.000000000000000e+00 0.000000000000000e+00 0.000000000000000e+00
0.000000000000000e+00 0.000000000000000e+00 0.000000000000000e+00
0.000000000000000e+00 0.000000000000000e+00 0.000000000000000e+00
0.000000000000000e+00 0.000000000000000e+00 0.000000000000000e+00
0.000000000000000e+00 0.000000000000000e+00 0.000000000000000e+00
0.000000000000000e+00 0.000000000000000e+00 0.000000000000000e+00
0.000000000000000e+00 0.000000000000000e+00 0.000000000000000e+00
0.000000000000000e+00 0.000000000000000e+00 0.000000000000000e+00
0.000000000000000e+00 0.000000000000000e+00 0.000000000000000e+00
0.000000000000000e+00 0.000000000000000e+00 0.000000000000000e+00
0.000000000000000e+00 0.000000000000000e+00 0.000000000000000e+00
0.000000000000000e+00 0.000000000000000e+00 0.000000000000000e+00
0.000000000000000e+00 0.000000000000000e+00 0.000000000000000e+00
0.000000000000000e+00 0.000000000000000e+00 0.000000000000000e+00
0.000000000000000e+00 0.000000000000000e+00 0.000000000000000e+00
0.000000000000000e+00 0.000000000000000e+00 0.000000000000000e+00
0.000000000000000e+00 0.000000000000000e+00 0.000000000000000e+00
0.000000000000000e+00 0.000000000000000e+00 0.000000000000000e+00
0.000000000000000e+00 0.000000000000000e+00 0.000000000000000e+00
0.000000000000000e+00 0.000000000000000e+00 0.000000000000000e+00
0.000000000000000e+00 0.000000000000000e+00 0.000000000000000e+00
0.000000000000000e+00 0.000000000000000e+00 0.000000000000000e+00
0.000000000000000e+00 0.000000000000000e+00 0.000000000000000e+00
0.000000000000000e+00 0.000000000000000e+00 0.000000000000000e+00
0.000000000000000e+00 0.000000000000000e+00 0.000000000000000e+00
0.000000000000000e+00 0.000000000000000e+00 0.000000000000000e+00
0.000000000000000e+00 0.000000000000000e+00 0.000000000000000e+00
0.000000000000000e+00 0.000000000000000e+00 0.000000000000000e+00
0.000000000000000e+00 0.000000000000000e+00 0.000000000000000e+00
0.000000000000000e+00 0.000000000000000e+00 0.000000000000000e+00
0.000000000000000e+00 0.000000000000000e+00 0.000000000000000e+00
0.000000000000000e+00 0.000000000000000e+00 0.000000000000000e+00
0.000000000000000e+00 0.000000000000000e+00 0.000000000000000e+00
0.000000000000000e+00 0.000000000000000e+00 0.000000000000000e+00
0.000000000000000e+00 0.000000000000000e+00 0.000000000000000e+00
0.000000000000000e+00 0.000000000000000e+00 0.000000000000000e+00
0.000000000000000e+00 0.000000000000000e+00 0.000000000000000e+00
0.000000000000000e+00 0.000000000000000e+00 0.000000000000000e+00
0.000000000000000e+00 0.000000000000000e+00 0.000000000000000e+00
0.000000000000000e+00 0.000000000000000e+00 0.000000000000000e+00
0.000000000000000e+00 0.000000000000000e+00 0.000000000000000e+00
0.000000000000000e+00 0.000000000000000e+00 0.000000000000000e+00
0.000000000000000e+00 0.000000000000000e+00 0.000000000000000e+00
0.000000000000000e+00 0.000000000000000e+00 0.000000000000000e+00
0.000000000000000e+00 0.000000000000000e+00 0.000000000000000e+00
0.000000000000000e+00 0.000000000000000e+00 0.000000000000000e+00
0.000000000000000e+00 0.000000000000000e+00 0.000000000000000e+00
0.000000000000000e+00 0.000000000000000e+00 0.000000000000000e+00
0.000000000000000e+00 0.000000000000000e+00 0.000000000000000e+00
0.000000000000000e+00 0.000000000000000e+00 0.000000000000000e+00
0.000000000000000e+00 0.000000000000000e+00 0.000000000000000e+00
0.000000000000000e+00 0.000000000000000e+00 0.000000000000000e+00
0.000000000000000e+00 0.000000000000000e+00 0.000000000000000e+00
0.000000000000000e+00 0.000000000000000e+00 0.000000000000000e+00
0.000000000000000e+00 0.000000000000000e+00 0.000000000000000e+00
0.000000000000000e+00 0.000000000000000e+00 0.000000000000000e+00
0.000000000000000e+00 0.000000000000000e+00 0.000000000000000e+00
0.000000000000000e+00 0.000000000000000e+00 0.000000000000000e+00
0.000000000000000e+00 0.000000000000000e+00 0.000000000000000e+00
0.000000000000000e+00 0.000000000000000e+00 0.000000000000000e+00
0.000000000000000e+00 0.000000000000000e+00 0.000000000000000e+00
0.000000000000000e+00 0.000000000000000e+00 0.000000000000000e+00
0.000000000000000e+00 0.000000000000000e+00 0.000000000000000e+00
0.000000000000000e+00 0.000000000000000e+00 0.000000000000000e+00
0.000000000000000e+00 0.000000000000000e+00 0.000000000000000e+00
0.000000000000000e+00 0.000000000000000e+00 0.000000000000000e+00
0.000000000000000e+00 0.000000000000000e+00 0.000000000000000e+00
0.000000000000000e+00 0.000000000000000e+00 0.000000000000000e+00
0.000000000000000e+00 0.000000000000000e+00 0.000000000000000e+00
0.000000000000000e+00 0.000000000000000e+00 0.000000000000000e+00
0.000000000000000e+00 0.000000000000000e+00 0.000000000000000e+00
0.000000000000000e+00 0.000000000000000e+00 0.000000000000000e+00
0.000000000000000e+00 0.000000000000000e+00 0.000000000000000e+00
0.000000000000000e+00 0.000000000000000e+00 0.000000000000000e+00
0.000000000000000e+00 0.000000000000000e+00 0.000000000000000e+00
0.000000000000000e+00 0.000000000000000e+00 0.000000000000000e+00
0.000000000000000e+00 0.000000000000000e+00 0.000000000000000e+00
0.000000000000000e+00 0.000000000000000e+00 0.000000000000000e+00
0.000000000000000e+00 0.000000000000000e+00 0.000000000000000e+00
0.000000000000000e+00 0.000000000000000e+00 0.000000000000000e+00
0.000000000000000e+00 0.000000000000000e+00 0.000000000000000e+00
0.000000000000000e+00 0.000000000000000e+00 0.000000000000000e+00
0.000000000000000e+00 0.000000000000000e+00 0.000000000000000e+00
0.000000000000000e+00 0.000000000000000e+00 0.000000000000000e+00
0.000000000000000e+00 0.000000000000000e+00 0.000000000000000e+00
0.000000000000000e+00 0.000000000000000e+00 0.000000000000000e+00
0.000000000000000e+00 0.000000000000000e+00 0.000000000000000e+00
0.000000000000000e+00 0.000000000000000e+00 0.000000000000000e+00
0.000000000000000e+00 0.000000000000000e+00 0.000000000000000e+00
0.000000000000000e+00 0.000000000000000e+00 0.000000000000000e+00
0.000000000000000e+00 0.000000000000000e+00 0.000000000000000e+00
0.000000000000000e+00 0.000000000000000e+00 0.000000000000000e+00
0.000000000000000e+00 0.000000000000000e+00 0.000000000000000e+00
0.000000000000000e+00 0.000000000000000e+00 0.000000000000000e+00
0.000000000000000e+00 0.000000000000000e+00 0.000000000000000e+00
0.000000000000000e+00 0.000000000000000e+00 0.000000000000000e+00
0.000000000000000e+00 0.000000000000000e+00 0.000000000000000e+00
0.000000000000000e+00 0.000000000000000e+00 0.000000000000000e+00
0.000000000000000e+00 0.000000000000000e+00 0.000000000000000e+00
0.000000000000000e+00 0.000000000000000e+00 0.000000000000000e+00
0.000000000000000e+00 0.000000000000000e+00 0.000000000000000e+00
0.000000000000000e+00 0.000000000000000e+00 0.000000000000000e+00
0.000000000000000e+00 0.000000000000000e+00 0.000000000000000e+00
0.000000000000000e+00 0.000000000000000e+00 0.000000000000000e+00
0.000000000000000e+00 0.000000000000000e+00 0.000000000000000e+00
0.000000000000000e+00 0.000000000000000e+00 0.000000000000000e+00
0.000000000000000e+00 0.000000000000000e+00 0.000000000000000e+00
0.000000000000000e+00 0.000000000000000e+00 0.000000000000000e+00
0.000000000000000e+00 0.000000000000000e+00 0.000000000000000e+00
0.000000000000000e+00 0.000000000000000e+00 0.000000000000000e+00
0.000000000000000e+00 0.000000000000000e+00 0.000000000000000e+00
0.000000000000000e+00 0.000000000000000e+00 0.000000000000000e+00
0.000000000000000e+00 0.000000000000000e+00 0.000000000000000e+00
0.000000000000000e+00 0.000000000000000e+00 0.000000000000000e+00
0.000000000000000e+00 0.000000000000000e+00 0.000000000000000e+00
0.000000000000000e+00 0.000000000000000e+00 0.000000000000000e+00
0.000000000000000e+00 0.000000000000000e+00 0.000000000000000e+00
0.000000000000000e+00 0.000000000000000e+00 0.000000000000000e+00
0.000000000000000e+00 0.000000000000000e+00 0.000000000000000e+00
0.000000000000000e+00 0.000000000000000e+00 0.000000000000000e+00
0.000000000000000e+00 0.000000000000000e+00 0.000000000000000e+00
0.000000000000000e+00 0.000000000000000e+00 0.000000000000000e+00
0.000000000000000e+00 0.000000000000000e+00 0.000000000000000e+00
0.000000000000000e+00 0.000000000000000e+00 0.000000000000000e+00
0.000000000000000e+00 0.000000000000000e+00 0.000000000000000e+00
0.000000000000000e+00 0.000000000000000e+00 0.000000000000000e+00
0.000000000000000e+00 0.000000000000000e+00 0.000000000000000e+00
0.000000000000000e+00 0.000000000000000e+00 0.000000000000000e+00
0.000000000000000e+00 0.000000000000000e+00 0.000000000000000e+00
0.000000000000000e+00 0.000000000000000e+00 0.000000000000000e+00
0.000000000000000e+00 0.000000000000000e+00 0.000000000000000e+00
0.000000000000000e+00 0.000000000000000e+00 0.000000000000000e+00
0.000000000000000e+00 0.000000000000000e+00 0.000000000000000e+00
0.000000000000000e+00 0.000000000000000e+00 0.000000000000000e+00
0.000000000000000e+00 0.000000000000000e+00 0.000000000000000e+00
0.000000000000000e+00 0.000000000000000e+00 0.000000000000000e+00
0.000000000000000e+00 0.000000000000000e+00 0.000000000000000e+00
0.000000000000000e+00 0.000000000000000e+00 0.000000000000000e+00
0.000000000000000e+00 0.000000000000000e+00 0.000000000000000e+00
0.000000000000000e+00 0.000000000000000e+00 0.000000000000000e+00
0.000000000000000e+00 0.000000000000000e+00 0.000000000000000e+00
0.000000000000000e+00 0.000000000000000e+00 0.000000000000000e+00
0.000000000000000e+00 0.000000000000000e+00 0.000000000000000e+00
0.000000000000000e+00 0.000000000000000e+00 0.000000000000000e+00
0.000000000000000e+00 0.000000000000000e+00 0.000000000000000e+00
0.000000000000000e+00 0.000000000000000e+00 0.000000000000000e+00
0.000000000000000e+00 0.000000000000000e+00 0.000000000000000e+00
0.000000000000000e+00 0.000000000000000e+00 0.000000000000000e+00
0.000000000000000e+00 0.000000000000000e+00 0.000000000000000e+00
0.000000000000000e+00 0.000000000000000e+00 0.000000000000000e+00
0.000000000000000e+00 0.000000000000000e+00 0.000000000000000e+00
0.000000000000000e+00 0.000000000000000e+00 0.000000000000000e+00
0.000000000000000e+00 0.000000000000000e+00 0.000000000000000e+00
0.000000000000000e+00 0.000000000000000e+00 0.000000000000000e+00
0.000000000000000e+00 0.000000000000000e+00 0.000000000000000e+00
0.000000000000000e+00 0.000000000000000e+00 0.000000000000000e+00
0.000000000000000e+00 0.000000000000000e+00 0.000000000000000e+00
0.000000000000000e+00 0.000000000000000e+00 0.000000000000000e+00
0.000000000000000e+00 0.000000000000000e+00 0.000000000000000e+00
0.000000000000000e+00 0.000000000000000e+00 0.000000000000000e+00
0.000000000000000e+00 0.000000000000000e+00 0.000000000000000e+00
0.000000000000000e+00 0.000000000000000e+00 0.000000000000000e+00
0.000000000000000e+00 0.000000000000000e+00 0.000000000000000e+00
0.000000000000000e+00 0.000000000000000e+00 0.000000000000000e+00
0.000000000000000e+00 0.000000000000000e+00 0.000000000000000e+00
0.000000000000000e+00 0.000000000000000e+00 0.000000000000000e+00
0.000000000000000e+00 0.000000000000000e+00 0.000000000000000e+00
0.000000000000000e+00 0.000000000000000e+00 0.000000000000000e+00
0.000000000000000e+00 0.000000000000000e+00 0.000000000000000e+00
0.000000000000000e+00 0.000000000000000e+00 0.000000000000000e+00
0.000000000000000e+00 0.000000000000000e+00 0.000000000000000e+00
0.000000000000000e+00 0.000000000000000e+00 0.000000000000000e+00
0.000000000000000e+00 0.000000000000000e+00 0.000000000000000e+00
0.000000000000000e+00 0.000000000000000e+00 0.000000000000000e+00
0.000000000000000e+00 0.000000000000000e+00 0.000000000000000e+00
0.000000000000000e+00 0.000000000000000e+00 0.000000000000000e+00
0.000000000000000e+00 0.000000000000000e+00 0.000000000000000e+00
0.000000000000000e+00 0.000000000000000e+00 0.000000000000000e+00
0.000000000000000e+00 0.000000000000000e+00 0.000000000000000e+00
0.000000000000000e+00 0.000000000000000e+00 0.000000000000000e+00
0.000000000000000e+00 0.000000000000000e+00 0.000000000000000e+00
0.000000000000000e+00 0.000000000000000e+00 0.000000000000000e+00
0.000000000000000e+00 0.000000000000000e+00 0.000000000000000e+00
0.000000000000000e+00 0.000000000000000e+00 0.000000000000000e+00
0.000000000000000e+00 0.000000000000000e+00 0.000000000000000e+00
0.000000000000000e+00 0.000000000000000e+00 0.000000000000000e+00
0.000000000000000e+00 0.000000000000000e+00 0.000000000000000e+00
0.000000000000000e+00 0.000000000000000e+00 0.000000000000000e+00