# vtk DataFile Version 3.0
# Dislocation lines converted from MoDELib file
ASCII
DATASET UNSTRUCTURED_GRID
POINTS 2979 double
-1.429999999999877e+00  3.863858941524650e+02 -2.918975276816622e+03
-1.429999999999897e+00 -3.863858941524674e+02 -2.918975276816622e+03
-1.429999999999897e+00  0.000000000000000e+00 -2.918975276816622e+03
-1.430000000000221e+00  0.000000000000000e+00  2.918975276816619e+03
-1.430000000000221e+00 -3.863858941524674e+02  2.918975276816619e+03
-1.430000000000201e+00  3.863858941524653e+02  2.918975276816619e+03
-1.148564107113119e+03  1.104458110857099e+00 -2.918975276816622e+03
-1.148564145632037e+03 -1.049378581047222e+00 -2.918975276816622e+03
-1.148558281355050e+03 -1.739350886788043e+00 -2.918975276816622e+03
-1.148557703992621e+03 -3.939691852658056e+00 -2.918975276816622e+03
-1.148540850969364e+03 -5.249355847097405e+00 -2.918975276816622e+03
-1.148539831619995e+03 -6.327412469769237e+00 -2.918975276816622e+03
-1.148520192756621e+03 -8.209474201079368e+00 -2.918975276816622e+03
-1.148480624759146e+03 -1.300822982557022e+01 -2.918975276816622e+03
-1.148470921822227e+03 -1.368606795717881e+01 -2.918975276816622e+03
-1.148449909325230e+03 -1.660983816228955e+01 -2.918975276816622e+03
-1.148384228002109e+03 -2.010188743868535e+01 -2.918975276816622e+03
-1.148360342252488e+03 -2.289743925166321e+01 -2.918975276816622e+03
-1.148294569893451e+03 -2.693407711408084e+01 -2.918975276816622e+03
-1.148284279275245e+03 -2.804616141039251e+01 -2.918975276816622e+03
-1.148157561294404e+03 -3.496805159746825e+01 -2.918975276816622e+03
-1.148139013219882e+03 -3.587803176853564e+01 -2.918975276816622e+03
-1.148084332244796e+03 -3.841437931615801e+01 -2.918975276816622e+03
-1.148074429289846e+03 -4.025132210450234e+01 -2.918975276816622e+03
-1.148072506726503e+03 -4.108504984862000e+01 -2.918975276816622e+03
-1.148024763087992e+03 -4.334417609225681e+01 -2.918975276816622e+03
-1.148076060394470e+03 -4.516400917507693e+01 -2.918975276816622e+03
-1.148191886295912e+03 -4.988828908304149e+01 -2.918975276816622e+03
-1.148306233696400e+03 -5.100237408432546e+01 -2.918975276816622e+03
-1.147850697947355e+03 -5.220770328972189e+01 -2.918975276816622e+03
-1.148414516637204e+03 -5.372820040176863e+01 -2.918975276816622e+03
-1.148104147650349e+03 -5.416480391931128e+01 -2.918975276816622e+03
-1.148138307607057e+03 -5.582880161141043e+01 -2.918975276816622e+03
-1.147782134625857e+03 -5.845311901399504e+01 -2.918975276816622e+03
-1.147806842235331e+03 -6.017151066481418e+01 -2.918975276816622e+03
-1.147874408443663e+03 -6.136607996986390e+01 -2.918975276816622e+03
-1.147802658138307e+03 -6.331323995497120e+01 -2.918975276816622e+03
-1.147891306408872e+03 -6.434687704157342e+01 -2.918975276816622e+03
-1.147796298907932e+03 -6.632962020446139e+01 -2.918975276816622e+03
-1.147801376980432e+03 -6.738242477674999e+01 -2.918975276816622e+03
-1.147736899864244e+03 -6.992878360139709e+01 -2.918975276816622e+03
-1.147799116232782e+03 -7.059180648058290e+01 -2.918975276816622e+03
-1.147720063168205e+03 -7.213622246751103e+01 -2.918975276816622e+03
-1.147805906093567e+03 -7.419473534201239e+01 -2.918975276816622e+03
-1.147720711625125e+03 -7.527893754696647e+01 -2.918975276816622e+03
-1.147805839457789e+03 -7.630369061293950e+01 -2.918975276816622e+03
-1.147703173045429e+03 -7.834313456506671e+01 -2.918975276816622e+03
-1.147804996042858e+03 -8.024273840522035e+01 -2.918975276816622e+03
-1.147704041275976e+03 -8.133996905739002e+01 -2.918975276816622e+03
-1.147801134220161e+03 -8.335315386411568e+01 -2.918975276816622e+03
-1.147693951800984e+03 -8.499059468635305e+01 -2.918975276816622e+03
-1.147785215930343e+03 -8.765762901585367e+01 -2.918975276816622e+03
-1.147685779870889e+03 -8.952633195980734e+01 -2.918975276816622e+03
-1.147749273576024e+03 -9.039275677833814e+01 -2.918975276816622e+03
-1.147642155402137e+03 -9.209657713851405e+01 -2.918975276816622e+03
-1.147715960375399e+03 -9.486557380546843e+01 -2.918975276816622e+03
-1.147657480290672e+03 -9.555067949165085e+01 -2.918975276816622e+03
-1.147700862692894e+03 -9.844895716963094e+01 -2.918975276816622e+03
-1.147618029120693e+03 -1.003141369353248e+02 -2.918975276816622e+03
-1.147675206155928e+03 -1.013958604864551e+02 -2.918975276816622e+03
-1.147595296546066e+03 -1.032515238702794e+02 -2.918975276816622e+03
-1.147650999821795e+03 -1.042367227308596e+02 -2.918975276816622e+03
-1.147562189964783e+03 -1.061978677832647e+02 -2.918975276816622e+03
-1.147637224783122e+03 -1.072640694052931e+02 -2.918975276816622e+03
-1.147530581144825e+03 -1.097279095536460e+02 -2.918975276816622e+03
-1.147586604973008e+03 -1.105282272621340e+02 -2.918975276816622e+03
-1.147492319296093e+03 -1.122575747253824e+02 -2.918975276816622e+03
-1.147560863987881e+03 -1.141257624859239e+02 -2.918975276816622e+03
-1.147529978226559e+03 -1.142019055141208e+02 -2.918975276816622e+03
-1.147594245540241e+03 -1.157515601917287e+02 -2.918975276816622e+03
-1.147539331886977e+03 -1.183371333083037e+02 -2.918975276816622e+03
-1.147589311008869e+03 -1.201257892400474e+02 -2.918975276816622e+03
-1.147532978547641e+03 -1.213351512199686e+02 -2.918975276816622e+03
-1.147577169120419e+03 -1.234619880717258e+02 -2.918975276816622e+03
-1.147598410670278e+03 -1.248105321726942e+02 -2.918975276816622e+03
-1.147619565196252e+03 -1.295942582320161e+02 -2.918975276816622e+03
-1.147457253285159e+03 -1.303334427530210e+02 -2.918975276816622e+03
-1.147587292632806e+03 -1.322108668564928e+02 -2.918975276816622e+03
-1.147650772162886e+03 -1.341566148795774e+02 -2.918975276816622e+03
-1.147578465970777e+03 -1.344573613325404e+02 -2.918975276816622e+03
-1.147582349363587e+03 -1.357663323297996e+02 -2.918975276816622e+03
-1.147630475448134e+03 -1.384003222812144e+02 -2.918975276816622e+03
-1.147646927162548e+03 -1.400556778963947e+02 -2.918975276816622e+03
-1.147640056753294e+03 -1.412652813147974e+02 -2.918975276816622e+03
-1.147661975788216e+03 -1.431681740637619e+02 -2.918975276816622e+03
-1.147656385183899e+03 -1.441352907693844e+02 -2.918975276816622e+03
-1.147701285292549e+03 -1.461375245718554e+02 -2.918975276816622e+03
-1.147682114074577e+03 -1.471524656508646e+02 -2.918975276816622e+03
-1.147741441657149e+03 -1.496396110963221e+02 -2.918975276816622e+03
-1.147715576163549e+03 -1.503417134295798e+02 -2.918975276816622e+03
-1.147778210690965e+03 -1.520378898339249e+02 -2.918975276816622e+03
-1.147757246159851e+03 -1.540299668236409e+02 -2.918975276816622e+03
-1.147765618643127e+03 -1.540638362406362e+02 -2.918975276816622e+03
-1.147752888946997e+03 -1.559584905447533e+02 -2.918975276816622e+03
-1.147832539020203e+03 -1.601725682674281e+02 -2.918975276816622e+03
-1.147820639108950e+03 -1.612281893377636e+02 -2.918975276816622e+03
-1.147863781712470e+03 -1.631897904088280e+02 -2.918975276816622e+03
-1.147872956600606e+03 -1.647265414001456e+02 -2.918975276816622e+03
-1.147953293275009e+03 -1.723221305253391e+02 -2.918975276816622e+03
-1.147977866690797e+03 -1.756637850376519e+02 -2.918975276816622e+03
-1.148007608627694e+03 -1.783159013124231e+02 -2.918975276816622e+03
-1.148008148045497e+03 -1.802138296980634e+02 -2.918975276816622e+03
-1.148024489045789e+03 -1.812738404530540e+02 -2.918975276816622e+03
-1.148035976453169e+03 -1.831425812083300e+02 -2.918975276816622e+03
-1.148035955579005e+03 -1.847063074627098e+02 -2.918975276816622e+03
-1.148052147241753e+03 -1.894901184176028e+02 -2.918975276816622e+03
-1.148040802819356e+03 -1.901272736816623e+02 -2.918975276816622e+03
-1.148069690038458e+03 -1.919397926768781e+02 -2.918975276816622e+03
-1.148044011521674e+03 -1.939051474948049e+02 -2.918975276816622e+03
-1.148058447263781e+03 -1.943018333506547e+02 -2.918975276816622e+03
-1.148030733952832e+03 -1.960471300922669e+02 -2.918975276816622e+03
-1.148046250856396e+03 -2.000603208273577e+02 -2.918975276816622e+03
-1.148002580143816e+03 -2.010814514680816e+02 -2.918975276816622e+03
-1.148037048772681e+03 -2.030817106727111e+02 -2.918975276816622e+03
-1.147989930650021e+03 -2.040530478208579e+02 -2.918975276816622e+03
-1.148024353306858e+03 -2.060215856302558e+02 -2.918975276816622e+03
-1.147970201403414e+03 -2.070708457874591e+02 -2.918975276816622e+03
-1.147992661882347e+03 -2.095565673445404e+02 -2.918975276816622e+03
-1.147939018039903e+03 -2.103826247297370e+02 -2.918975276816622e+03
-1.147967944228390e+03 -2.124287205455575e+02 -2.918975276816622e+03
-1.147864695257740e+03 -2.156028329723076e+02 -2.918975276816622e+03
-1.147869700121940e+03 -2.182330162784992e+02 -2.918975276816622e+03
-1.147776025325497e+03 -2.201120882323772e+02 -2.918975276816622e+03
-1.147799991326946e+03 -2.212140097624501e+02 -2.918975276816622e+03
-1.147704126845347e+03 -2.230802453991156e+02 -2.918975276816622e+03
-1.147680339287776e+03 -2.246470775669858e+02 -2.918975276816622e+03
-1.147493535394619e+03 -2.294549270626362e+02 -2.918975276816622e+03
-1.147436390099978e+03 -2.301858320684823e+02 -2.918975276816622e+03
-1.147368936505839e+03 -2.319849610625455e+02 -2.918975276816622e+03
-1.147177269272293e+03 -2.337585348429598e+02 -2.918975276816622e+03
-1.147170841599503e+03 -2.338947727761442e+02 -2.918975276816622e+03
-1.147399960427123e+03 -2.355580723791221e+02 -2.918975276816622e+03
-1.147481586652967e+03 -2.381248301315062e+02 -2.918975276816622e+03
-1.147618541491284e+03 -2.401110378780717e+02 -2.918975276816622e+03
-1.147593719409564e+03 -2.411564428714280e+02 -2.918975276816622e+03
-1.147760462202509e+03 -2.431469973601213e+02 -2.918975276816622e+03
-1.147705740146361e+03 -2.444643694625385e+02 -2.918975276816622e+03
-1.147887479393632e+03 -2.470183344578562e+02 -2.918975276816622e+03
-1.147867016755543e+03 -2.470571313177011e+02 -2.918975276816622e+03
-1.147916652010160e+03 -2.498183943159574e+02 -2.918975276816622e+03
-1.147846509266507e+03 -2.508363481149731e+02 -2.918975276816622e+03
-1.147903024829639e+03 -2.516582167229425e+02 -2.918975276816622e+03
-1.147841634699208e+03 -2.538783304090829e+02 -2.918975276816622e+03
[...]
POINT_DATA 2979
VECTORS PK_force double
0.000000000000000e+00 0.000000000000000e+00 0.000000000000000e+00
0.000000000000000e+00 0.000000000000000e+00 0.000000000000000e+00
0.000000000000000e+00 0.000000000000000e+00 0.000000000000000e+00
0.000000000000000e+00 0.000000000000000e+00 0.000000000000000e+00
0.000000000000000e+00 0.000000000000000e+00 0.000000000000000e+00
0.000000000000000e+00 0.000000000000000e+00 0.000000000000000e+00
0.000000000000000e+00 0.000000000000000e+00 0.000000000000000e+00
0.000000000000000e+00 0.000000000000000e+00 0.000000000000000e+00
0.000000000000000e+00 0.000000000000000e+00 0.000000000000000e+00
0.000000000000000e+00 0.000000000000000e+00 0.000000000000000e+00
0.000000000000000e+00 0.000000000000000e+00 0.000000000000000e+00
0.000000000000000e+00 0.000000000000000e+00 0.000000000000000e+00
0.000000000000000e+00 0.000000000000000e+00 0.000000000000000e+00
0.000000000000000e+00 0.000000000000000e+00 0.000000000000000e+00
0.000000000000000e+00 0.000000000000000e+00 0.000000000000000e+00
0.000000000000000e+00 0.000000000000000e+00 0.000000000000000e+00
0.000000000000000e+00 0.000000000000000e+00 0.000000000000000e+00
0.000000000000000e+00 0.000000000000000e+00 0.000000000000000e+00
0.000000000000000e+00 0.000000000000000e+00 0.000000000000000e+00
0.000000000000000e+00 0.000000000000000e+00 0.000000000000000e+00
0.000000000000000e+00 0.000000000000000e+00 0.000000000000000e+00
0.000000000000000e+00 0.000000000000000e+00 0.000000000000000e+00
0.000000000000000e+00 0.000000000000000e+00 0.000000000000000e+00
0.000000000000000e+00 0.000000000000000e+00 0.000000000000000e+00
0.000000000000000e+00 0.000000000000000e+00 0.000000000000000e+00
0.000000000000000e+00 0.000000000000000e+00 0.000000000000000e+00
0.000000000000000e+00 0.000000000000000e+00 0.000000000000000e+00
0.000000000000000e+00 0.000000000000000e+00 0.000000000000000e+00
0.000000000000000e+00 0.000000000000000e+00 0.000000000000000e+00
0.000000000000000e+00 0.000000000000000e+00 0.000000000000000e+00
0.000000000000000e+00 0.000000000000000e+00 0.000000000000000e+00
0.000000000000000e+00 0.000000000000000e+00 0.000000000000000e+00
0.000000000000000e+00 0.000000000000000e+00 0.000000000000000e+00
0.000000000000000e+00 0.000000000000000e+00 0.000000000000000e+00
0.000000000000000e+00 0.000000000000000e+00 0.000000000000000e+00
0.000000000000000e+00 0.000000000000000e+00 0.000000000000000e+00
0.000000000000000e+00 0.000000000000000e+00 0.000000000000000e+00
0.000000000000000e+00 0.000000000000000e+00 0.000000000000000e+00
0.000000000000000e+00 0.000000000000000e+00 0.000000000000000e+00
0.000000000000000e+00 0.000000000000000e+00 0.000000000000000e+00
0.000000000000000e+00 0.000000000000000e+00 0.000000000000000e+00
0.000000000000000e+00 0.000000000000000e+00 0.000000000000000e+00
0.000000000000000e+00 0.000000000000000e+00 0.000000000000000e+00
0.000000000000000e+00 0.000000000000000e+00 0.000000000000000e+00
0.000000000000000e+00 0.000000000000000e+00 0.000000000000000e+00
0.000000000000000e+00 0.000000000000000e+00 0.000000000000000e+00
0.000000000000000e+00 0.000000000000000e+00 0.000000000000000e+00
0.000000000000000e+00 0.000000000000000e+00 0.000000000000000e+00
0.000000000000000e+00 0.000000000000000e+00 0.000000000000000e+00
0.000000000000000e+00 0.000000000000000e+00 0.000000000000000e+00
0.000000000000000e+00 0.000000000000000e+00 0.000000000000000e+00
0.000000000000000e+00 0.000000000000000e+00 0.000000000000000e+00
0.000000000000000e+00 0.000000000000000e+00 0.000000000000000e+00
0.000000000000000e+00 0.000000000000000e+00 0.000000000000000e+00
0.000000000000000e+00 0.000000000000000e+00 0.000000000000000e+00
0.000000000000000e+00 0.000000000000000e+00 0.000000000000000e+00
0.000000000000000e+00 0.000000000000000e+00 0.000000000000000e+00
0.000000000000000e+00 0.000000000000000e+00 0.000000000000000e+00
0.000000000000000e+00 0.000000000000000e+00 0.000000000000000e+00
0.000000000000000e+00 0.000000000000000e+00 0.000000000000000e+00
0.000000000000000e+00 0.000000000000000e+00 0.000000000000000e+00
0.000000000000000e+00 0.000000000000000e+00 0.000000000000000e+00
0.000000000000000e+00 0.000000000000000e+00 0.000000000000000e+00
0.000000000000000e+00 0.000000000000000e+00 0.000000000000000e+00
0.000000000000000e+00 0.000000000000000e+00 0.000000000000000e+00
0.000000000000000e+00 0.000000000000000e+00 0.000000000000000e+00
0.000000000000000e+00 0.000000000000000e+00 0.000000000000000e+00
0.000000000000000e+00 0.000000000000000e+00 0.000000000000000e+00
0.000000000000000e+00 0.000000000000000e+00 0.000000000000000e+00
0.000000000000000e+00 0.000000000000000e+00 0.000000000000000e+00
0.000000000000000e+00 0.000000000000000e+00 0.000000000000000e+00
0.000000000000000e+00 0.000000000000000e+00 0.000000000000000e+00
0.000000000000000e+00 0.000000000000000e+00 0.000000000000000e+00
0.000000000000000e+00 0.000000000000000e+00 0.000000000000000e+00
0.000000000000000e+00 0.000000000000000e+00 0.000000000000000e+00
0.000000000000000e+00 0.000000000000000e+00 0.000000000000000e+00
0.000000000000000e+00 0.000000000000000e+00 0.000000000000000e+00
0.000000000000000e+00 0.000000000000000e+00 0.000000000000000e+00
0.000000000000000e+00 0.000000000000000e+00 0.000000000000000e+00
0.000000000000000e+00 0.000000000000000e+00 0.000000000000000e+00
0.000000000000000e+00 0.000000000000000e+00 0.000000000000000e+00
0.000000000000000e+00 0.000000000000000e+00 0.000000000000000e+00
0.000000000000000e+00 0.000000000000000e+00 0.000000000000000e+00
0.000000000000000e+00 0.000000000000000e+00 0.000000000000000e+00
0.000000000000000e+00 0.000000000000000e+00 0.000000000000000e+00
0.000000000000000e+00 0.000000000000000e+00 0.000000000000000e+00
0.000000000000000e+00 0.000000000000000e+00 0.000000000000000e+00
0.000000000000000e+00 0.000000000000000e+00 0.000000000000000e+00
0.000000000000000e+00 0.000000000000000e+00 0.000000000000000e+00
0.000000000000000e+00 0.000000000000000e+00 0.000000000000000e+00
0.000000000000000e+00 0.000000000000000e+00 0.000000000000000e+00
0.000000000000000e+00 0.000000000000000e+00 0.000000000000000e+00
0.000000000000000e+00 0.000000000000000e+00 0.000000000000000e+00
0.000000000000000e+00 0.000000000000000e+00 0.000000000000000e+00
0.000000000000000e+00 0.000000000000000e+00 0.000000000000000e+00
0.000000000000000e+00 0.000000000000000e+00 0.000000000000000e+00
0.000000000000000e+00 0.000000000000000e+00 0.000000000000000e+00
0.000000000000000e+00 0.000000000000000e+00 0.000000000000000e+00
0.000000000000000e+00 0.000000000000000e+00 0.000000000000000e+00
0.000000000000000e+00 0.000000000000000e+00 0.000000000000000e+00
0.000000000000000e+00 0.000000000000000e+00 0.000000000000000e+00
0.000000000000000e+00 0.000000000000000e+00 0.000000000000000e+00
0.000000000000000e+00 0.000000000000000e+00 0.000000000000000e+00
0.000000000000000e+00 0.000000000000000e+00 0.000000000000000e+00
0.000000000000000e+00 0.000000000000000e+00 0.000000000000000e+00
0.000000000000000e+00 0.000000000000000e+00 0.000000000000000e+00
0.000000000000000e+00 0.000000000000000e+00 0.000000000000000e+00
0.000000000000000e+00 0.000000000000000e+00 0.000000000000000e+00
0.000000000000000e+00 0.000000000000000e+00 0.000000000000000e+00
0.000000000000000e+00 0.000000000000000e+00 0.000000000000000e+00
0.000000000000000e+00 0.000000000000000e+00 0.000000000000000e+00
0.000000000000000e+00 0.000000000000000e+00 0.000000000000000e+00
0.000000000000000e+00 0.000000000000000e+00 0.000000000000000e+00
0.000000000000000e+00 0.000000000000000e+00 0.000000000000000e+00
0.000000000000000e+00 0.000000000000000e+00 0.000000000000000e+00
0.000000000000000e+00 0.000000000000000e+00 0.000000000000000e+00
0.000000000000000e+00 0.000000000000000e+00 0.000000000000000e+00
0.000000000000000e+00 0.000000000000000e+00 0.000000000000000e+00
0.000000000000000e+00 0.000000000000000e+00 0.000000000000000e+00
0.000000000000000e+00 0.000000000000000e+00 0.000000000000000e+00
0.000000000000000e+00 0.000000000000000e+00 0.000000000000000e+00
0.000000000000000e+00 0.000000000000000e+00 0.000000000000000e+00
0.000000000000000e+00 0.000000000000000e+00 0.000000000000000e+00
0.000000000000000e+00 0.000000000000000e+00 0.000000000000000e+00
0.000000000000000e+00 0.000000000000000e+00 0.000000000000000e+00
0.000000000000000e+00 0.000000000000000e+00 0.000000000000000e+00
0.000000000000000e+00 0.000000000000000e+00 0.000000000000000e+00
0.000000000000000e+00 0.000000000000000e+00 0.000000000000000e+00
0.000000000000000e+00 0.000000000000000e+00 0.000000000000000e+00
0.000000000000000e+00 0.000000000000000e+00 0.000000000000000e+00
0.000000000000000e+00 0.000000000000000e+00 0.000000000000000e+00
0.000000000000000e+00 0.000000000000000e+00 0.000000000000000e+00
0.000000000000000e+00 0.000000000000000e+00 0.000000000000000e+00
0.000000000000000e+00 0.000000000000000e+00 0.000000000000000e+00
0.000000000000000e+00 0.000000000000000e+00 0.000000000000000e+00
0.000000000000000e+00 0.000000000000000e+00 0.000000000000000e+00
0.000000000000000e+00 0.000000000000000e+00 0.000000000000000e+00
0.000000000000000e+00 0.000000000000000e+00 0.000000000000000e+00
0.000000000000000e+00 0.000000000000000e+00 0.000000000000000e+00
0.000000000000000e+00 0.000000000000000e+00 0.000000000000000e+00
0.000000000000000e+00 0.000000000000000e+00 0.000000000000000e+00
0.000000000000000e+00 0.000000000000000e+00 0.000000000000000e+00
0.000000000000000e+00 0.000000000000000e+00 0.000000000000000e+00
0.000000000000000e+00 0.000000000000000e+00 0.000000000000000e+00
0.000000000000000e+00 0.000000000000000e+00 0.000000000000000e+00
0.000000000000000e+00 0.000000000000000e+00 0.000000000000000e+00
0.000000000000000e+00 0.000000000000000e+00 0.000000000000000e+00
0.000000000000000e+00 0.000000000000000e+00 0.000000000000000e+00
0.000000000000000e+00 0.000000000000000e+00 0.000000000000000e+00
0.000000000000000e+00 0.000000000000000e+00 0.000000000000000e+00
0.000000000000000e+00 0.000000000000000e+00 0.000000000000000e+00
0.000000000000000e+00 0.000000000000000e+00 0.000000000000000e+00
0.000000000000000e+00 0.000000000000000e+00 0.000000000000000e+00
0.000000000000000e+00 0.000000000000000e+00 0.000000000000000e+00
0.000000000000000e+00 0.000000000000000e+00 0.000000000000000e+00
0.000000000000000e+00 0.000000000000000e+00 0.000000000000000e+00
0.000000000000000e+00 0.000000000000000e+00 0.000000000000000e+00
0.000000000000000e+00 0.000000000000000e+00 0.000000000000000e+00
0.000000000000000e+00 0.000000000000000e+00 0.000000000000000e+00
0.000000000000000e+00 0.000000000000000e+00 0.000000000000000e+00
0.000000000000000e+00 0.000000000000000e+00 0.000000000000000e+00
0.000000000000000e+00 0.000000000000000e+00 0.000000000000000e+00
0.000000000000000e+00 0.000000000000000e+00 0.000000000000000e+00
0.000000000000000e+00 0.000000000000000e+00 0.000000000000000e+00
0.000000000000000e+00 0.000000000000000e+00 0.000000000000000e+00
0.000000000000000e+00 0.000000000000000e+00 0.000000000000000e+00
0.000000000000000e+00 0.000000000000000e+00 0.000000000000000e+00
0.000000000000000e+00 0.000000000000000e+00 0.000000000000000e+00
0.000000000000000e+00 0.000000000000000e+00 0.000000000000000e+00
0.000000000000000e+00 0.000000000000000e+00 0.000000000000000e+00
0.000000000000000e+00 0.000000000000000e+00 0.000000000000000e+00
0.000000000000000e+00 0.000000000000000e+00 0.000000000000000e+00
0.000000000000000e+00 0.000000000000000e+00 0.000000000000000e+00
0.000000000000000e+00 0.000000000000000e+00 0.000000000000000e+00
0.000000000000000e+00 0.000000000000000e+00 0.000000000000000e+00
0.000000000000000e+00 0.000000000000000e+00 0.000000000000000e+00
0.000000000000000e+00 0.000000000000000e+00 0.000000000000000e+00
0.000000000000000e+00 0.000000000000000e+00 0.000000000000000e+00
0.000000000000000e+00 0.000000000000000e+00 0.000000000000000e+00
0.000000000000000e+00 0.000000000000000e+00 0.000000000000000e+00
0.000000000000000e+00 0.000000000000000e+00 0.000000000000000e+00
0.000000000000000e+00 0.000000000000000e+00 0.000000000000000e+00
0.000000000000000e+00 0.000000000000000e+00 0.000000000000000e+00
0.000000000000000e+00 0.000000000000000e+00 0.000000000000000e+00
0.000000000000000e+00 0.000000000000000e+00 0.000000000000000e+00
0.000000000000000e+00 0.000000000000000e+00 0.000000000000000e+00
0.000000000000000e+00 0.000000000000000e+00 0.000000000000000e+00
0.000000000000000e+00 0.000000000000000e+00 0.000000000000000e+00
0.000000000000000e+00 0.000000000000000e+00 0.000000000000000e+00
0.000000000000000e+00 0.000000000000000e+00 0.000000000000000e+00
0.000000000000000e+00 0.000000000000000e+00 0.000000000000000e+00
0.000000000000000e+00 0.000000000000000e+00 0.000000000000000e+00
0.000000000000000e+00 0.000000000000000e+00 0.000000000000000e+00
0.000000000000000e+00 0.000000000000000e+00 0.000000000000000e+00
0.000000000000000e+00 0.000000000000000e+00 0.000000000000000e+00
0.000000000000000e+00 0.000000000000000e+00 0.000000000000000e+00
0.000000000000000e+00 0.000000000000000e+00 0.000000000000000e+00
0.000000000000000e+00 0.000000000000000e+00 0.000000000000000e+00
0.000000000000000e+00 0.000000000000000e+00 0.000000000000000e+00
0.000000000000000e+00 0.000000000000000e+00 0.000000000000000e+00
0.000000000000000e+00 0.000000000000000e+00 0.000000000000000e+00
0.000000000000000e+00 0.000000000000000e+00 0.000000000000000e+00
0.000000000000000e+00 0.000000000000000e+00 0.000000000000000e+00
0.000000000000000e+00 0.000000000000000e+00 0.000000000000000e+00
0.000000000000000e+00 0.000000000000000e+00 0.000000000000000e+00
0.000000000000000e+00 0.000000000000000e+00 0.000000000000000e+00
0.000000000000000e+00 0.000000000000000e+00 0.000000000000000e+00
0.000000000000000e+00 0.000000000000000e+00 0.000000000000000e+00
0.000000000000000e+00 0.000000000000000e+00 0.000000000000000e+00
0.000000000000000e+00 0.000000000000000e+00 0.000000000000000e+00
0.000000000000000e+00 0.000000000000000e+00 0.000000000000000e+00
0.000000000000000e+00 0.000000000000000e+00 0.000000000000000e+00
0.000000000000000e+00 0.000000000000000e+00 0.000000000000000e+00
0.000000000000000e+00 0.000000000000000e+00 0.000000000000000e+00
0.000000000000000e+00 0.000000000000000e+00 0.000000000000000e+00
0.000000000000000e+00 0.000000000000000e+00 0.000000000000000e+00
0.000000000000000e+00 0.000000000000000e+00 0.000000000000000e+00
0.000000000000000e+00 0.000000000000000e+00 0.000000000000000e+00
0.000000000000000e+00 0.000000000000000e+00 0.000000000000000e+00
0.000000000000000e+00 0.000000000000000e+00 0.000000000000000e+00
0.000000000000000e+00 0.000000000000000e+00 0.000000000000000e+00
0.000000000000000e+00 0.000000000000000e+00 0.000000000000000e+00
0.000000000000000e+00 0.000000000000000e+00 0.000000000000000e+00
0.000000000000000e+00 0.000000000000000e+00 0.000000000000000e+00
0.000000000000000e+00 0.000000000000000e+00 0.000000000000000e+00
0.000000000000000e+00 0.000000000000000e+00 0.000000000000000e+00
0.000000000000000e+00 0.000000000000000e+00 0.000000000000000e+00
0.000000000000000e+00 0.000000000000000e+00 0.000000000000000e+00
0.000000000000000e+00 0.000000000000000e+00 0.000000000000000e+00
0.000000000000000e+00 0.000000000000000e+00 0.000000000000000e+00
0.000000000000000e+00 0.000000000000000e+00 0.000000000000000e+00
0.000000000000000e+00 0.000000000000000e+00 0.000000000000000e+00
0.000000000000000e+00 0.000000000000000e+00 0.000000000000000e+00
0.000000000000000e+00 0.000000000000000e+00 0.000000000000000e+00
0.000000000000000e+00 0.000000000000000e+00 0.000000000000000e+00
0.000000000000000e+00 0.000000000000000e+00 0.000000000000000e+00
0.000000000000000e+00 0.000000000000000e+00 0.000000000000000e+00
0.000000000000000e+00 0.000000000000000e+00 0.000000000000000e+00
0.000000000000000e+00 0.000000000000000e+00 0.000000000000000e+00
0.000000000000000e+00 0.000000000000000e+00 0.000000000000000e+00
0.000000000000000e+00 0.000000000000000e+00 0.000000000000000e+00
0.000000000000000e+00 0.000000000000000e+00 0.000000000000000e+00
0.000000000000000e+00 0.000000000000000e+00 0.000000000000000e+00
0.000000000000000e+00 0.000000000000000e+00 0.000000000000000e+00
0.000000000000000e+00 0.000000000000000e+00 0.000000000000000e+00
0.000000000000000e+00 0.000000000000000e+00 0.000000000000000e+00
0.000000000000000e+00 0.000000000000000e+00 0.000000000000000e+00
0.000000000000000e+00 0.000000000000000e+00 0.000000000000000e+00
0.000000000000000e+00 0.000000000000000e+00 0.000000000000000e+00
0.000000000000000e+00 0.000000000000000e+00 0.000000000000000e+00
0.000000000000000e+00 0.000000000000000e+00 0.000000000000000e+00
0.000000000000000e+00 0.000000000000000e+00 0.000000000000000e+00
0.000000000000000e+00 0.000000000000000e+00 0.000000000000000e+00
0.000000000000000e+00 0.000000000000000e+00 0.000000000000000e+00
0.000000000000000e+00 0.000000000000000e+00 0.000000000000000e+00
0.000000000000000e+00 0.000000000000000e+00 0.000000000000000e+00
0.000000000000000e+00 0.000000000000000e+00 0.000000000000000e+00
0.000000000000000e+00 0.000000000000000e+00 0.000000000000000e+00
0.000000000000000e+00 0.000000000000000e+00 0.000000000000000e+00
0.000000000000000e+00 0.000000000000000e+00 0.000000000000000e+00
0.000000000000000e+00 0.000000000000000e+00 0.000000000000000e+00
0.000000000000000e+00 0.000000000000000e+00 0.000000000000000e+00
0.000000000000000e+00 0.000000000000000e+00 0.000000000000000e+00
0.000000000000000e+00 0.000000000000000e+00 0.000000000000000e+00
0.000000000000000e+00 0.000000000000000e+00 0.000000000000000e+00
0.000000000000000e+00 0.000000000000000e+00 0.000000000000000e+00
0.000000000000000e+00 0.000000000000000e+00 0.000000000000000e+00
0.000000000000000e+00 0.000000000000000e+00 0.000000000000000e+00
0.000000000000000e+00 0.000000000000000e+00 0.000000000000000e+00
0.000000000000000e+00 0.000000000000000e+00 0.000000000000000e+00
0.000000000000000e+00 0.000000000000000e+00 0.000000000000000e+00
0.000000000000000e+00 0.000000000000000e+00 0.000000000000000e+00
0.000000000000000e+00 0.000000000000000e+00 0.000000000000000e+00
0.000000000000000e+00 0.000000000000000e+00 0.000000000000000e+00
0.000000000000000e+00 0.000000000000000e+00 0.000000000000000e+00
0.000000000000000e+00 0.000000000000000e+00 0.000000000000000e+00
0.000000000000000e+00 0.000000000000000e+00 0.000000000000000e+00
0.000000000000000e+00 0.000000000000000e+00 0.000000000000000e+00
0.000000000000000e+00 0.000000000000000e+00 0.000000000000000e+00
0.000000000000000e+00 0.000000000000000e+00 0.000000000000000e+00
0.000000000000000e+00 0.000000000000000e+00 0.000000000000000e+00
0.000000000000000e+00 0.000000000000000e+00 0.000000000000000e+00
0.000000000000000e+00 0.000000000000000e+00 0.000000000000000e+00
0.000000000000000e+00 0.000000000000000e+00 0.000000000000000e+00
0.000000000000000e+00 0.000000000000000e+00 0.000000000000000e+00
0.000000000000000e+00 0.000000000000000e+00 0.000000000000000e+00
0.000000000000000e+00 0.000000000000000e+00 0.000000000000000e+00
0.000000000000000e+00 0.000000000000000e+00 0.000000000000000e+00
0.000000000000000e+00 0.000000000000000e+00 0.000000000000000e+00
0.000000000000000e+00 0.000000000000000e+00 0.000000000000000e+00
0.000000000000000e+00 0.000000000000000e+00 0.000000000000000e+00
0.000000000000000e+00 0.000000000000000e+00 0.000000000000000e+00
0.000000000000000e+00 0.000000000000000e+00 0.000000000000000e+00
0.000000000000000e+00 0.000000000000000e+00 0.000000000000000e+00
0.000000000000000e+00 0.000000000000000e+00 0.000000000000000e+00
0.000000000000000e+00 0.000000000000000e+00 0.000000000000000e+00
0.000000000000000e+00 0.000000000000000e+00 0.000000000000000e+00
0.000000000000000e+00 0.000000000000000e+00 0.000000000000000e+00
0.000000000000000e+00 0.000000000000000e+00 0.000000000000000e+00
0.000000000000000e+00 0.000000000000000e+00 0.000000000000000e+00
0.000000000000000e+00 0.000000000000000e+00 0.000000000000000e+00
0.000000000000000e+00 0.000000000000000e+00 0.000000000000000e+00