# vtk DataFile Version 3.0
# Dislocation lines converted from MoDELib file
ASCII
DATASET UNSTRUCTURED_GRID
POINTS 3103 double
-1.429999999999877e+00  3.863858941524650e+02 -2.918975276816622e+03
-1.429999999999897e+00 -3.863858941524674e+02 -2.918975276816622e+03
-1.429999999999897e+00  0.000000000000000e+00 -2.918975276816622e+03
-1.430000000000221e+00  0.000000000000000e+00  2.918975276816619e+03
-1.430000000000221e+00 -3.863858941524674e+02  2.918975276816619e+03
-1.430000000000201e+00  3.863858941524653e+02  2.918975276816619e+03
-1.148591569792153e+03  1.107319922302243e+00 -2.918975276816622e+03
-1.148583274484166e+03 -1.003935552088267e+00 -2.918975276816622e+03
-1.148372625045200e+03 -1.685595640555409e+00 -2.918975276816622e+03
-1.148578893064531e+03 -3.939207446654319e+00 -2.918975276816622e+03
-1.148716766989477e+03 -5.244618834536965e+00 -2.918975276816622e+03
-1.148557501512589e+03 -6.423325311908707e+00 -2.918975276816622e+03
-1.148456841380016e+03 -8.207328513227917e+00 -2.918975276816622e+03
-1.148596301060385e+03 -1.301082734790845e+01 -2.918975276816622e+03
-1.148529914200088e+03 -1.369385520525647e+01 -2.918975276816622e+03
-1.148520715363760e+03 -1.660987196644956e+01 -2.918975276816622e+03
-1.148485993055049e+03 -2.010194197400658e+01 -2.918975276816622e+03
-1.148518197008773e+03 -2.289936892540669e+01 -2.918975276816622e+03
-1.148431185083067e+03 -2.693987415567836e+01 -2.918975276816622e+03
-1.148288707888283e+03 -2.806964208270354e+01 -2.918975276816622e+03
-1.148130348791321e+03 -3.242718098495372e+01 -2.918975276816622e+03
-1.147406536986050e+03 -3.227119907009290e+01 -2.918975276816622e+03
-1.148166540126718e+03 -3.499630372676263e+01 -2.918975276816622e+03
-1.148021762574883e+03 -3.590119067904003e+01 -2.918975276816622e+03
-1.147950523093838e+03 -3.839898410118717e+01 -2.918975276816622e+03
-1.147890341280403e+03 -3.997932380538933e+01 -2.918975276816622e+03
-1.148438809944143e+03 -4.108794946588306e+01 -2.918975276816622e+03
-1.147852540563943e+03 -4.335356243144993e+01 -2.918975276816622e+03
-1.147449231452417e+03 -4.509759389991030e+01 -2.918975276816622e+03
-1.147571320160283e+03 -4.975152123195586e+01 -2.918975276816622e+03
-1.147613930484711e+03 -5.032284369407765e+01 -2.918975276816622e+03
-1.147423245159241e+03 -5.216738090405033e+01 -2.918975276816622e+03
-1.147465566705725e+03 -5.415778982325143e+01 -2.918975276816622e+03
-1.147338171779409e+03 -5.432658550741974e+01 -2.918975276816622e+03
-1.147395733272743e+03 -5.592882441309114e+01 -2.918975276816622e+03
-1.147529843098869e+03 -5.845457603195044e+01 -2.918975276816622e+03
-1.147592213866292e+03 -6.014740021631416e+01 -2.918975276816622e+03
-1.147576914364876e+03 -6.138102271965376e+01 -2.918975276816622e+03
-1.147591088099291e+03 -6.331720068098407e+01 -2.918975276816622e+03
-1.147688804636537e+03 -6.434037607640482e+01 -2.918975276816622e+03
-1.147676270430830e+03 -6.630402716899522e+01 -2.918975276816622e+03
-1.147587228839830e+03 -6.735216755788862e+01 -2.918975276816622e+03
-1.147655205258585e+03 -6.988192509684984e+01 -2.918975276816622e+03
-1.147509322325034e+03 -7.059145486285490e+01 -2.918975276816622e+03
-1.147743541135608e+03 -7.214881036811806e+01 -2.918975276816622e+03
-1.148021812616494e+03 -7.422350010612757e+01 -2.918975276816622e+03
-1.147731279969104e+03 -7.529250755226617e+01 -2.918975276816622e+03
-1.147605326629147e+03 -7.627626525636515e+01 -2.918975276816622e+03
-1.147710241614635e+03 -7.830451397276549e+01 -2.918975276816622e+03
-1.148251352401028e+03 -8.028778109960685e+01 -2.918975276816622e+03
-1.147728180525507e+03 -8.142290252656746e+01 -2.918975276816622e+03
-1.147725756899294e+03 -8.336439943630675e+01 -2.918975276816622e+03
-1.147718028564769e+03 -8.501054111644865e+01 -2.918975276816622e+03
-1.147823775648061e+03 -8.766140535467524e+01 -2.918975276816622e+03
-1.147756100184497e+03 -8.954013467592716e+01 -2.918975276816622e+03
-1.147783760699857e+03 -9.040443979413884e+01 -2.918975276816622e+03
-1.147712876183552e+03 -9.210540869028213e+01 -2.918975276816622e+03
-1.147717658453155e+03 -9.486523960842975e+01 -2.918975276816622e+03
-1.147659454264155e+03 -9.555344760435366e+01 -2.918975276816622e+03
-1.147694272389044e+03 -9.844938274379285e+01 -2.918975276816622e+03
-1.147679250768013e+03 -1.003103020486977e+02 -2.918975276816622e+03
-1.147712251327350e+03 -1.013927152173018e+02 -2.918975276816622e+03
-1.147626988377180e+03 -1.032452275813255e+02 -2.918975276816622e+03
-1.147634564294841e+03 -1.042324062280558e+02 -2.918975276816622e+03
-1.147589563733028e+03 -1.061812305837470e+02 -2.918975276816622e+03
-1.147657366528753e+03 -1.072510999588868e+02 -2.918975276816622e+03
-1.147525523153143e+03 -1.097225270207690e+02 -2.918975276816622e+03
-1.147537156985353e+03 -1.105038474786742e+02 -2.918975276816622e+03
-1.147461624028785e+03 -1.122555050104136e+02 -2.918975276816622e+03
-1.147605370971711e+03 -1.141465288080291e+02 -2.918975276816622e+03
-1.147442113536106e+03 -1.142562959238590e+02 -2.918975276816622e+03
-1.147559096585384e+03 -1.157658698399251e+02 -2.918975276816622e+03
-1.147484533119914e+03 -1.183404951385573e+02 -2.918975276816622e+03
-1.147406455289045e+03 -1.201485428035604e+02 -2.918975276816622e+03
-1.147502809821084e+03 -1.213349913621032e+02 -2.918975276816622e+03
-1.147733612177054e+03 -1.234490311763940e+02 -2.918975276816622e+03
-1.147442079584653e+03 -1.248186361094548e+02 -2.918975276816622e+03
-1.147451525808980e+03 -1.295945456427130e+02 -2.918975276816622e+03
-1.147475846887316e+03 -1.303477524401836e+02 -2.918975276816622e+03
-1.147471000683044e+03 -1.322148431889773e+02 -2.918975276816622e+03
-1.147481887212042e+03 -1.341658341846843e+02 -2.918975276816622e+03
-1.147437586603111e+03 -1.344704062792633e+02 -2.918975276816622e+03
-1.147442849617209e+03 -1.357681927530506e+02 -2.918975276816622e+03
-1.147499022326585e+03 -1.384029347118519e+02 -2.918975276816622e+03
-1.147559978931367e+03 -1.400527447348673e+02 -2.918975276816622e+03
-1.147515062665552e+03 -1.412640341944848e+02 -2.918975276816622e+03
-1.147599560777230e+03 -1.431662787466952e+02 -2.918975276816622e+03
-1.147574726802671e+03 -1.441283863209226e+02 -2.918975276816622e+03
-1.147696637599824e+03 -1.461344977567182e+02 -2.918975276816622e+03
-1.147630624601099e+03 -1.471485217569264e+02 -2.918975276816622e+03
-1.147727545628215e+03 -1.496380618672157e+02 -2.918975276816622e+03
-1.147695026320294e+03 -1.503409471022977e+02 -2.918975276816622e+03
-1.147782632601232e+03 -1.520364458976474e+02 -2.918975276816622e+03
-1.147765772963975e+03 -1.540337151244753e+02 -2.918975276816622e+03
-1.147785440975485e+03 -1.540841435177159e+02 -2.918975276816622e+03
-1.147767896557758e+03 -1.559648168086580e+02 -2.918975276816622e+03
-1.147836117606323e+03 -1.601736658416607e+02 -2.918975276816622e+03
-1.147816886469565e+03 -1.612322461578134e+02 -2.918975276816622e+03
-1.147820988807503e+03 -1.631935574397835e+02 -2.918975276816622e+03
-1.147833607581700e+03 -1.647294192173324e+02 -2.918975276816622e+03
-1.147836019526003e+03 -1.694810835663318e+02 -2.918975276816622e+03
-1.147519497549182e+03 -1.693012737371779e+02 -2.918975276816622e+03
-1.147837918526865e+03 -1.723397363387285e+02 -2.918975276816622e+03
-1.147921545686976e+03 -1.756639907933351e+02 -2.918975276816622e+03
-1.147979102884518e+03 -1.783164909261847e+02 -2.918975276816622e+03
-1.147926355217370e+03 -1.802122915175798e+02 -2.918975276816622e+03
-1.147986922028060e+03 -1.812710917732195e+02 -2.918975276816622e+03
-1.147966081700190e+03 -1.831489097107210e+02 -2.918975276816622e+03
-1.147996286819561e+03 -1.847082191062517e+02 -2.918975276816622e+03
-1.148035472093669e+03 -1.894922925791922e+02 -2.918975276816622e+03
-1.148008653393860e+03 -1.901326914208361e+02 -2.918975276816622e+03
-1.148008528473129e+03 -1.919391332874577e+02 -2.918975276816622e+03
-1.148016319357402e+03 -1.939017075267356e+02 -2.918975276816622e+03
-1.148027060523661e+03 -1.942980901660107e+02 -2.918975276816622e+03
-1.147980234725890e+03 -1.960460696326581e+02 -2.918975276816622e+03
-1.148017167715998e+03 -2.000616959607625e+02 -2.918975276816622e+03
-1.147982636811501e+03 -2.010755225168547e+02 -2.918975276816622e+03
-1.148047447067082e+03 -2.031070865447009e+02 -2.918975276816622e+03
-1.147978997536246e+03 -2.040597292053320e+02 -2.918975276816622e+03
-1.147999736202754e+03 -2.060294216700544e+02 -2.918975276816622e+03
-1.147976680184098e+03 -2.070726920832422e+02 -2.918975276816622e+03
-1.148013642802587e+03 -2.095855602067710e+02 -2.918975276816622e+03
-1.147959582707239e+03 -2.103973255772416e+02 -2.918975276816622e+03
-1.147965125717442e+03 -2.124253309157082e+02 -2.918975276816622e+03
-1.147911991632002e+03 -2.156060349942238e+02 -2.918975276816622e+03
-1.147892568527140e+03 -2.182329721307715e+02 -2.918975276816622e+03
-1.147843174628669e+03 -2.201115285761606e+02 -2.918975276816622e+03
-1.147841786607046e+03 -2.212145832212273e+02 -2.918975276816622e+03
-1.147771268991372e+03 -2.230836722683423e+02 -2.918975276816622e+03
-1.147741910853511e+03 -2.246483110727934e+02 -2.918975276816622e+03
-1.147554464426957e+03 -2.294628946392066e+02 -2.918975276816622e+03
-1.147494191252915e+03 -2.301921141075760e+02 -2.918975276816622e+03
-1.147429957849187e+03 -2.319930234363964e+02 -2.918975276816622e+03
-1.147236065753994e+03 -2.337619691419659e+02 -2.918975276816622e+03
-1.147216558021499e+03 -2.338479961997088e+02 -2.918975276816622e+03
-1.147508014904810e+03 -2.355420026447483e+02 -2.918975276816622e+03
-1.147546045165677e+03 -2.381306667347197e+02 -2.918975276816622e+03
-1.147695118025414e+03 -2.401145038117749e+02 -2.918975276816622e+03
-1.147707051765296e+03 -2.411622230586596e+02 -2.918975276816622e+03
-1.147847361902501e+03 -2.431466754605686e+02 -2.918975276816622e+03
-1.147813725191322e+03 -2.444591649219230e+02 -2.918975276816622e+03
-1.147940304071617e+03 -2.470218523372560e+02 -2.918975276816622e+03
-1.147936001981498e+03 -2.470696736425403e+02 -2.918975276816622e+03
[...]
POINT_DATA 3103
VECTORS PK_force double
0.000000000000000e+00 0.000000000000000e+00 0.000000000000000e+00
0.000000000000000e+00 0.000000000000000e+00 0.000000000000000e+00
0.000000000000000e+00 0.000000000000000e+00 0.000000000000000e+00
0.000000000000000e+00 0.000000000000000e+00 0.000000000000000e+00
0.000000000000000e+00 0.000000000000000e+00 0.000000000000000e+00
0.000000000000000e+00 0.000000000000000e+00 0.000000000000000e+00
0.000000000000000e+00 0.000000000000000e+00 0.000000000000000e+00
0.000000000000000e+00 0.000000000000000e+00 0.000000000000000e+00
0.000000000000000e+00 0.000000000000000e+00 0.000000000000000e+00
0.000000000000000e+00 0.000000000000000e+00 0.000000000000000e+00
0.000000000000000e+00 0.000000000000000e+00 0.000000000000000e+00
0.000000000000000e+00 0.000000000000000e+00 0.000000000000000e+00
0.000000000000000e+00 0.000000000000000e+00 0.000000000000000e+00
0.000000000000000e+00 0.000000000000000e+00 0.000000000000000e+00
0.000000000000000e+00 0.000000000000000e+00 0.000000000000000e+00
0.000000000000000e+00 0.000000000000000e+00 0.000000000000000e+00
0.000000000000000e+00 0.000000000000000e+00 0.000000000000000e+00
0.000000000000000e+00 0.000000000000000e+00 0.000000000000000e+00
0.000000000000000e+00 0.000000000000000e+00 0.000000000000000e+00
0.000000000000000e+00 0.000000000000000e+00 0.000000000000000e+00
0.000000000000000e+00 0.000000000000000e+00 0.000000000000000e+00
0.000000000000000e+00 0.000000000000000e+00 0.000000000000000e+00
0.000000000000000e+00 0.000000000000000e+00 0.000000000000000e+00
0.000000000000000e+00 0.000000000000000e+00 0.000000000000000e+00
0.000000000000000e+00 0.000000000000000e+00 0.000000000000000e+00
0.000000000000000e+00 0.000000000000000e+00 0.000000000000000e+00
0.000000000000000e+00 0.000000000000000e+00 0.000000000000000e+00
0.000000000000000e+00 0.000000000000000e+00 0.000000000000000e+00
0.000000000000000e+00 0.000000000000000e+00 0.000000000000000e+00
0.000000000000000e+00 0.000000000000000e+00 0.000000000000000e+00
0.000000000000000e+00 0.000000000000000e+00 0.000000000000000e+00
0.000000000000000e+00 0.000000000000000e+00 0.000000000000000e+00
0.000000000000000e+00 0.000000000000000e+00 0.000000000000000e+00
0.000000000000000e+00 0.000000000000000e+00 0.000000000000000e+00
0.000000000000000e+00 0.000000000000000e+00 0.000000000000000e+00
0.000000000000000e+00 0.000000000000000e+00 0.000000000000000e+00
0.000000000000000e+00 0.000000000000000e+00 0.000000000000000e+00
0.000000000000000e+00 0.000000000000000e+00 0.000000000000000e+00
0.000000000000000e+00 0.000000000000000e+00 0.000000000000000e+00
0.000000000000000e+00 0.000000000000000e+00 0.000000000000000e+00
0.000000000000000e+00 0.000000000000000e+00 0.000000000000000e+00
0.000000000000000e+00 0.000000000000000e+00 0.000000000000000e+00
0.000000000000000e+00 0.000000000000000e+00 0.000000000000000e+00
0.000000000000000e+00 0.000000000000000e+00 0.000000000000000e+00
0.000000000000000e+00 0.000000000000000e+00 0.000000000000000e+00
0.000000000000000e+00 0.000000000000000e+00 0.000000000000000e+00
0.000000000000000e+00 0.000000000000000e+00 0.000000000000000e+00
0.000000000000000e+00 0.000000000000000e+00 0.000000000000000e+00
0.000000000000000e+00 0.000000000000000e+00 0.000000000000000e+00
0.000000000000000e+00 0.000000000000000e+00 0.000000000000000e+00
0.000000000000000e+00 0.000000000000000e+00 0.000000000000000e+00
0.000000000000000e+00 0.000000000000000e+00 0.000000000000000e+00
0.000000000000000e+00 0.000000000000000e+00 0.000000000000000e+00
0.000000000000000e+00 0.000000000000000e+00 0.000000000000000e+00
0.000000000000000e+00 0.000000000000000e+00 0.000000000000000e+00
0.000000000000000e+00 0.000000000000000e+00 0.000000000000000e+00
0.000000000000000e+00 0.000000000000000e+00 0.000000000000000e+00
0.000000000000000e+00 0.000000000000000e+00 0.000000000000000e+00
0.000000000000000e+00 0.000000000000000e+00 0.000000000000000e+00
0.000000000000000e+00 0.000000000000000e+00 0.000000000000000e+00
0.000000000000000e+00 0.000000000000000e+00 0.000000000000000e+00
0.000000000000000e+00 0.000000000000000e+00 0.000000000000000e+00
0.000000000000000e+00 0.000000000000000e+00 0.000000000000000e+00
0.000000000000000e+00 0.000000000000000e+00 0.000000000000000e+00
0.000000000000000e+00 0.000000000000000e+00 0.000000000000000e+00
0.000000000000000e+00 0.000000000000000e+00 0.000000000000000e+00
0.000000000000000e+00 0.000000000000000e+00 0.000000000000000e+00
0.000000000000000e+00 0.000000000000000e+00 0.000000000000000e+00
0.000000000000000e+00 0.000000000000000e+00 0.000000000000000e+00
0.000000000000000e+00 0.000000000000000e+00 0.000000000000000e+00
0.000000000000000e+00 0.000000000000000e+00 0.000000000000000e+00
0.000000000000000e+00 0.000000000000000e+00 0.000000000000000e+00
0.000000000000000e+00 0.000000000000000e+00 0.000000000000000e+00
0.000000000000000e+00 0.000000000000000e+00 0.000000000000000e+00
0.000000000000000e+00 0.000000000000000e+00 0.000000000000000e+00
0.000000000000000e+00 0.000000000000000e+00 0.000000000000000e+00
0.000000000000000e+00 0.000000000000000e+00 0.000000000000000e+00
0.000000000000000e+00 0.000000000000000e+00 0.000000000000000e+00
0.000000000000000e+00 0.000000000000000e+00 0.000000000000000e+00
0.000000000000000e+00 0.000000000000000e+00 0.000000000000000e+00
0.000000000000000e+00 0.000000000000000e+00 0.000000000000000e+00
0.000000000000000e+00 0.000000000000000e+00 0.000000000000000e+00
0.000000000000000e+00 0.000000000000000e+00 0.000000000000000e+00
0.000000000000000e+00 0.000000000000000e+00 0.000000000000000e+00
0.000000000000000e+00 0.000000000000000e+00 0.000000000000000e+00
0.000000000000000e+00 0.000000000000000e+00 0.000000000000000e+00
0.000000000000000e+00 0.000000000000000e+00 0.000000000000000e+00
0.000000000000000e+00 0.000000000000000e+00 0.000000000000000e+00
0.000000000000000e+00 0.000000000000000e+00 0.000000000000000e+00
0.000000000000000e+00 0.000000000000000e+00 0.000000000000000e+00
0.000000000000000e+00 0.000000000000000e+00 0.000000000000000e+00
0.000000000000000e+00 0.000000000000000e+00 0.000000000000000e+00
0.000000000000000e+00 0.000000000000000e+00 0.000000000000000e+00
0.000000000000000e+00 0.000000000000000e+00 0.000000000000000e+00
0.000000000000000e+00 0.000000000000000e+00 0.000000000000000e+00
0.000000000000000e+00 0.000000000000000e+00 0.000000000000000e+00
0.000000000000000e+00 0.000000000000000e+00 0.000000000000000e+00
0.000000000000000e+00 0.000000000000000e+00 0.000000000000000e+00
0.000000000000000e+00 0.000000000000000e+00 0.000000000000000e+00
0.000000000000000e+00 0.000000000000000e+00 0.000000000000000e+00
0.000000000000000e+00 0.000000000000000e+00 0.000000000000000e+00
0.000000000000000e+00 0.000000000000000e+00 0.000000000000000e+00
0.000000000000000e+00 0.000000000000000e+00 0.000000000000000e+00
0.000000000000000e+00 0.000000000000000e+00 0.000000000000000e+00
0.000000000000000e+00 0.000000000000000e+00 0.000000000000000e+00
0.000000000000000e+00 0.000000000000000e+00 0.000000000000000e+00
0.000000000000000e+00 0.000000000000000e+00 0.000000000000000e+00
0.000000000000000e+00 0.000000000000000e+00 0.000000000000000e+00
0.000000000000000e+00 0.000000000000000e+00 0.000000000000000e+00
0.000000000000000e+00 0.000000000000000e+00 0.000000000000000e+00
0.000000000000000e+00 0.000000000000000e+00 0.000000000000000e+00
0.000000000000000e+00 0.000000000000000e+00 0.000000000000000e+00
0.000000000000000e+00 0.000000000000000e+00 0.000000000000000e+00
0.000000000000000e+00 0.000000000000000e+00 0.000000000000000e+00
0.000000000000000e+00 0.000000000000000e+00 0.000000000000000e+00
0.000000000000000e+00 0.000000000000000e+00 0.000000000000000e+00
0.000000000000000e+00 0.000000000000000e+00 0.000000000000000e+00
0.000000000000000e+00 0.000000000000000e+00 0.000000000000000e+00
0.000000000000000e+00 0.000000000000000e+00 0.000000000000000e+00
0.000000000000000e+00 0.000000000000000e+00 0.000000000000000e+00
0.000000000000000e+00 0.000000000000000e+00 0.000000000000000e+00
0.000000000000000e+00 0.000000000000000e+00 0.000000000000000e+00
0.000000000000000e+00 0.000000000000000e+00 0.000000000000000e+00
0.000000000000000e+00 0.000000000000000e+00 0.000000000000000e+00
0.000000000000000e+00 0.000000000000000e+00 0.000000000000000e+00
0.000000000000000e+00 0.000000000000000e+00 0.000000000000000e+00
0.000000000000000e+00 0.000000000000000e+00 0.000000000000000e+00
0.000000000000000e+00 0.000000000000000e+00 0.000000000000000e+00
0.000000000000000e+00 0.000000000000000e+00 0.000000000000000e+00
0.000000000000000e+00 0.000000000000000e+00 0.000000000000000e+00
0.000000000000000e+00 0.000000000000000e+00 0.000000000000000e+00
0.000000000000000e+00 0.000000000000000e+00 0.000000000000000e+00
0.000000000000000e+00 0.000000000000000e+00 0.000000000000000e+00
0.000000000000000e+00 0.000000000000000e+00 0.000000000000000e+00
0.000000000000000e+00 0.000000000000000e+00 0.000000000000000e+00
0.000000000000000e+00 0.000000000000000e+00 0.000000000000000e+00
0.000000000000000e+00 0.000000000000000e+00 0.000000000000000e+00
0.000000000000000e+00 0.000000000000000e+00 0.000000000000000e+00
0.000000000000000e+00 0.000000000000000e+00 0.000000000000000e+00
0.000000000000000e+00 0.000000000000000e+00 0.000000000000000e+00
0.000000000000000e+00 0.000000000000000e+00 0.000000000000000e+00
0.000000000000000e+00 0.000000000000000e+00 0.000000000000000e+00
0.000000000000000e+00 0.000000000000000e+00 0.000000000000000e+00
0.000000000000000e+00 0.000000000000000e+00 0.000000000000000e+00
0.000000000000000e+00 0.000000000000000e+00 0.000000000000000e+00
0.000000000000000e+00 0.000000000000000e+00 0.000000000000000e+00
0.000000000000000e+00 0.000000000000000e+00 0.000000000000000e+00
0.000000000000000e+00 0.000000000000000e+00 0.000000000000000e+00
0.000000000000000e+00 0.000000000000000e+00 0.000000000000000e+00
0.000000000000000e+00 0.000000000000000e+00 0.000000000000000e+00
0.000000000000000e+00 0.000000000000000e+00 0.000000000000000e+00
0.000000000000000e+00 0.000000000000000e+00 0.000000000000000e+00
0.000000000000000e+00 0.000000000000000e+00 0.000000000000000e+00
0.000000000000000e+00 0.000000000000000e+00 0.000000000000000e+00
0.000000000000000e+00 0.000000000000000e+00 0.000000000000000e+00
0.000000000000000e+00 0.000000000000000e+00 0.000000000000000e+00
0.000000000000000e+00 0.000000000000000e+00 0.000000000000000e+00
0.000000000000000e+00 0.000000000000000e+00 0.000000000000000e+00
0.000000000000000e+00 0.000000000000000e+00 0.000000000000000e+00
0.000000000000000e+00 0.000000000000000e+00 0.000000000000000e+00
0.000000000000000e+00 0.000000000000000e+00 0.000000000000000e+00
0.000000000000000e+00 0.000000000000000e+00 0.000000000000000e+00
0.000000000000000e+00 0.000000000000000e+00 0.000000000000000e+00
0.000000000000000e+00 0.000000000000000e+00 0.000000000000000e+00
0.000000000000000e+00 0.000000000000000e+00 0.000000000000000e+00
0.000000000000000e+00 0.000000000000000e+00 0.000000000000000e+00
0.000000000000000e+00 0.000000000000000e+00 0.000000000000000e+00
0.000000000000000e+00 0.000000000000000e+00 0.000000000000000e+00
0.000000000000000e+00 0.000000000000000e+00 0.000000000000000e+00
0.000000000000000e+00 0.000000000000000e+00 0.000000000000000e+00
0.000000000000000e+00 0.000000000000000e+00 0.000000000000000e+00
0.000000000000000e+00 0.000000000000000e+00 0.000000000000000e+00
0.000000000000000e+00 0.000000000000000e+00 0.000000000000000e+00
0.000000000000000e+00 0.000000000000000e+00 0.000000000000000e+00
0.000000000000000e+00 0.000000000000000e+00 0.000000000000000e+00
0.000000000000000e+00 0.000000000000000e+00 0.000000000000000e+00
0.000000000000000e+00 0.000000000000000e+00 0.000000000000000e+00
0.000000000000000e+00 0.000000000000000e+00 0.000000000000000e+00
0.000000000000000e+00 0.000000000000000e+00 0.000000000000000e+00
0.000000000000000e+00 0.000000000000000e+00 0.000000000000000e+00
0.000000000000000e+00 0.000000000000000e+00 0.000000000000000e+00
0.000000000000000e+00 0.000000000000000e+00 0.000000000000000e+00
0.000000000000000e+00 0.000000000000000e+00 0.000000000000000e+00
0.000000000000000e+00 0.000000000000000e+00 0.000000000000000e+00
0.000000000000000e+00 0.000000000000000e+00 0.000000000000000e+00
0.000000000000000e+00 0.000000000000000e+00 0.000000000000000e+00
0.000000000000000e+00 0.000000000000000e+00 0.000000000000000e+00
0.000000000000000e+00 0.000000000000000e+00 0.000000000000000e+00
0.000000000000000e+00 0.000000000000000e+00 0.000000000000000e+00
0.000000000000000e+00 0.000000000000000e+00 0.000000000000000e+00
0.000000000000000e+00 0.000000000000000e+00 0.000000000000000e+00
0.000000000000000e+00 0.000000000000000e+00 0.000000000000000e+00
0.000000000000000e+00 0.000000000000000e+00 0.000000000000000e+00
0.000000000000000e+00 0.000000000000000e+00 0.000000000000000e+00
0.000000000000000e+00 0.000000000000000e+00 0.000000000000000e+00
0.000000000000000e+00 0.000000000000000e+00 0.000000000000000e+00
0.000000000000000e+00 0.000000000000000e+00 0.000000000000000e+00
0.000000000000000e+00 0.000000000000000e+00 0.000000000000000e+00
0.000000000000000e+00 0.000000000000000e+00 0.000000000000000e+00
0.000000000000000e+00 0.000000000000000e+00 0.000000000000000e+00
0.000000000000000e+00 0.000000000000000e+00 0.000000000000000e+00
0.000000000000000e+00 0.000000000000000e+00 0.000000000000000e+00
0.000000000000000e+00 0.000000000000000e+00 0.000000000000000e+00
0.000000000000000e+00 0.000000000000000e+00 0.000000000000000e+00
0.000000000000000e+00 0.000000000000000e+00 0.000000000000000e+00
0.000000000000000e+00 0.000000000000000e+00 0.000000000000000e+00
0.000000000000000e+00 0.000000000000000e+00 0.000000000000000e+00
0.000000000000000e+00 0.000000000000000e+00 0.000000000000000e+00
0.000000000000000e+00 0.000000000000000e+00 0.000000000000000e+00
0.000000000000000e+00 0.000000000000000e+00 0.000000000000000e+00
0.000000000000000e+00 0.000000000000000e+00 0.000000000000000e+00
0.000000000000000e+00 0.000000000000000e+00 0.000000000000000e+00
0.000000000000000e+00 0.000000000000000e+00 0.000000000000000e+00
0.000000000000000e+00 0.000000000000000e+00 0.000000000000000e+00
0.000000000000000e+00 0.000000000000000e+00 0.000000000000000e+00
0.000000000000000e+00 0.000000000000000e+00 0.000000000000000e+00
0.000000000000000e+00 0.000000000000000e+00 0.000000000000000e+00
0.000000000000000e+00 0.000000000000000e+00 0.000000000000000e+00
0.000000000000000e+00 0.000000000000000e+00 0.000000000000000e+00
0.000000000000000e+00 0.000000000000000e+00 0.000000000000000e+00
0.000000000000000e+00 0.000000000000000e+00 0.000000000000000e+00
0.000000000000000e+00 0.000000000000000e+00 0.000000000000000e+00
0.000000000000000e+00 0.000000000000000e+00 0.000000000000000e+00
0.000000000000000e+00 0.000000000000000e+00 0.000000000000000e+00
0.000000000000000e+00 0.000000000000000e+00 0.000000000000000e+00
0.000000000000000e+00 0.000000000000000e+00 0.000000000000000e+00
0.000000000000000e+00 0.000000000000000e+00 0.000000000000000e+00
0.000000000000000e+00 0.000000000000000e+00 0.000000000000000e+00
0.000000000000000e+00 0.000000000000000e+00 0.000000000000000e+00
0.000000000000000e+00 0.000000000000000e+00 0.000000000000000e+00
0.000000000000000e+00 0.000000000000000e+00 0.000000000000000e+00
0.000000000000000e+00 0.000000000000000e+00 0.000000000000000e+00
0.000000000000000e+00 0.000000000000000e+00 0.000000000000000e+00
0.000000000000000e+00 0.000000000000000e+00 0.000000000000000e+00
0.000000000000000e+00 0.000000000000000e+00 0.000000000000000e+00
0.000000000000000e+00 0.000000000000000e+00 0.000000000000000e+00
0.000000000000000e+00 0.000000000000000e+00 0.000000000000000e+00
0.000000000000000e+00 0.000000000000000e+00 0.000000000000000e+00
0.000000000000000e+00 0.000000000000000e+00 0.000000000000000e+00
0.000000000000000e+00 0.000000000000000e+00 0.000000000000000e+00
0.000000000000000e+00 0.000000000000000e+00 0.000000000000000e+00
0.000000000000000e+00 0.000000000000000e+00 0.000000000000000e+00
0.000000000000000e+00 0.000000000000000e+00 0.000000000000000e+00
0.000000000000000e+00 0.000000000000000e+00 0.000000000000000e+00
0.000000000000000e+00 0.000000000000000e+00 0.000000000000000e+00
0.000000000000000e+00 0.000000000000000e+00 0.000000000000000e+00
0.000000000000000e+00 0.000000000000000e+00 0.000000000000000e+00
0.000000000000000e+00 0.000000000000000e+00 0.000000000000000e+00
0.000000000000000e+00 0.000000000000000e+00 0.000000000000000e+00
0.000000000000000e+00 0.000000000000000e+00 0.000000000000000e+00
0.000000000000000e+00 0.000000000000000e+00 0.000000000000000e+00
0.000000000000000e+00 0.000000000000000e+00 0.000000000000000e+00
0.000000000000000e+00 0.000000000000000e+00 0.000000000000000e+00
0.000000000000000e+00 0.000000000000000e+00 0.000000000000000e+00
0.000000000000000e+00 0.000000000000000e+00 0.000000000000000e+00
0.000000000000000e+00 0.000000000000000e+00 0.000000000000000e+00
0.000000000000000e+00 0.000000000000000e+00 0.000000000000000e+00
0.000000000000000e+00 0.000000000000000e+00 0.000000000000000e+00
0.000000000000000e+00 0.000000000000000e+00 0.000000000000000e+00
0.000000000000000e+00 0.000000000000000e+00 0.000000000000000e+00
0.000000000000000e+00 0.000000000000000e+00 0.000000000000000e+00
0.000000000000000e+00 0.000000000000000e+00 0.000000000000000e+00
0.000000000000000e+00 0.000000000000000e+00 0.000000000000000e+00
0.000000000000000e+00 0.000000000000000e+00 0.000000000000000e+00
0.000000000000000e+00 0.000000000000000e+00 0.000000000000000e+00
0.000000000000000e+00 0.000000000000000e+00 0.000000000000000e+00
0.000000000000000e+00 0.000000000000000e+00 0.000000000000000e+00
0.000000000000000e+00 0.000000000000000e+00 0.000000000000000e+00
0.000000000000000e+00 0.000000000000000e+00 0.000000000000000e+00
0.000000000000000e+00 0.000000000000000e+00 0.000000000000000e+00
0.000000000000000e+00 0.000000000000000e+00 0.000000000000000e+00
0.000000000000000e+00 0.000000000000000e+00 0.000000000000000e+00
0.000000000000000e+00 0.000000000000000e+00 0.000000000000000e+00
0.000000000000000e+00 0.000000000000000e+00 0.000000000000000e+00
0.000000000000000e+00 0.000000000000000e+00 0.000000000000000e+00
0.000000000000000e+00 0.000000000000000e+00 0.000000000000000e+00
0.000000000000000e+00 0.000000000000000e+00 0.000000000000000e+00
0.000000000000000e+00 0.000000000000000e+00 0.000000000000000e+00
0.000000000000000e+00 0.000000000000000e+00 0.000000000000000e+00
0.000000000000000e+00 0.000000000000000e+00 0.000000000000000e+00
0.000000000000000e+00 0.000000000000000e+00 0.000000000000000e+00
0.000000000000000e+00 0.000000000000000e+00 0.000000000000000e+00
0.000000000000000e+00 0.000000000000000e+00 0.000000000000000e+00
0.000000000000000e+00 0.000000000000000e+00 0.000000000000000e+00
0.000000000000000e+00 0.000000000000000e+00 0.000000000000000e+00
0.000000000000000e+00 0.000000000000000e+00 0.000000000000000e+00
0.000000000000000e+00 0.000000000000000e+00 0.000000000000000e+00
0.000000000000000e+00 0.000000000000000e+00 0.000000000000000e+00
0.000000000000000e+00 0.000000000000000e+00 0.000000000000000e+00
0.000000000000000e+00 0.000000000000000e+00 0.000000000000000e+00
0.000000000000000e+00 0.000000000000000e+00 0.000000000000000e+00
0.000000000000000e+00 0.000000000000000e+00 0.000000000000000e+00
0.000000000000000e+00 0.000000000000000e+00 0.000000000000000e+00
0.000000000000000e+00 0.000000000000000e+00 0.000000000000000e+00
0.000000000000000e+00 0.000000000000000e+00 0.000000000000000e+00
0.000000000000000e+00 0.000000000000000e+00 0.000000000000000e+00
0.000000000000000e+00 0.000000000000000e+00 0.000000000000000e+00
0.000000000000000e+00 0.000000000000000e+00 0.000000000000000e+00
0.000000000000000e+00 0.000000000000000e+00 0.000000000000000e+00
0.000000000000000e+00 0.000000000000000e+00 0.000000000000000e+00
0.000000000000000e+00 0.000000000000000e+00 0.000000000000000e+00
0.000000000000000e+00 0.000000000000000e+00 0.000000000000000e+00