# vtk DataFile Version 3.0
# Dislocation lines converted from MoDELib file
ASCII
DATASET UNSTRUCTURED_GRID
POINTS 3611 double
-1.429999999999877e+00  3.863858941524650e+02 -2.918975276816622e+03
-1.429999999999897e+00 -3.863858941524674e+02 -2.918975276816622e+03
-1.429999999999897e+00  0.000000000000000e+00 -2.918975276816622e+03
-1.430000000000221e+00  0.000000000000000e+00  2.918975276816619e+03
-1.430000000000221e+00 -3.863858941524674e+02  2.918975276816619e+03
-1.430000000000201e+00  3.863858941524653e+02  2.918975276816619e+03
-1.148717035958728e+03  1.136622203636771e+00 -2.918975276816622e+03
-1.148425089018579e+03 -9.161524627804669e-01 -2.918975276816622e+03
-1.148551976295310e+03 -1.634328640063654e+00 -2.918975276816622e+03
-1.148405160401196e+03 -3.945682841101570e+00 -2.918975276816622e+03
-1.148603642922875e+03 -5.024499108290611e+00 -2.918975276816622e+03
-1.148472112127388e+03 -6.628783284940059e+00 -2.918975276816622e+03
-1.148582112957647e+03 -8.291716819249835e+00 -2.918975276816622e+03
-1.148970099435732e+03 -1.312082440897059e+01 -2.918975276816622e+03
-1.148884245120596e+03 -1.380341463507793e+01 -2.918975276816622e+03
-1.148633052299198e+03 -1.661098833392613e+01 -2.918975276816622e+03
-1.148933008065840e+03 -2.011380556683345e+01 -2.918975276816622e+03
-1.148716571947717e+03 -2.292564832176310e+01 -2.918975276816622e+03
-1.148768014341825e+03 -2.690546014603119e+01 -2.918975276816622e+03
-1.148867656568514e+03 -2.811934991082041e+01 -2.918975276816622e+03
-1.148951916585129e+03 -3.028911977162703e+01 -2.918975276816622e+03
-1.149191393537515e+03 -3.017810733373813e+01 -2.918975276816622e+03
-1.148404158395709e+03 -3.257365711563180e+01 -2.918975276816622e+03
-1.148838461404289e+03 -3.395404118224195e+01 -2.918975276816622e+03
-1.148272759695831e+03 -3.504655284560750e+01 -2.918975276816622e+03
-1.148443068583822e+03 -3.589527754240740e+01 -2.918975276816622e+03
-1.148074188181270e+03 -3.847126886029788e+01 -2.918975276816622e+03
-1.148305271962686e+03 -4.012079140376673e+01 -2.918975276816622e+03
-1.148051790156828e+03 -4.131739975737137e+01 -2.918975276816622e+03
-1.148129651079108e+03 -4.331338521362272e+01 -2.918975276816622e+03
-1.147947894502382e+03 -4.493034803406975e+01 -2.918975276816622e+03
-1.147653862243545e+03 -4.977515124031264e+01 -2.918975276816622e+03
-1.147490818175047e+03 -5.031716461590169e+01 -2.918975276816622e+03
-1.147514465217527e+03 -5.217659707176171e+01 -2.918975276816622e+03
-1.147227763972463e+03 -5.407016729689169e+01 -2.918975276816622e+03
-1.146921542048065e+03 -5.428870987573035e+01 -2.918975276816622e+03
-1.147457252137129e+03 -5.595316160620875e+01 -2.918975276816622e+03
-1.147497977717492e+03 -5.854037549909923e+01 -2.918975276816622e+03
-1.147711328175676e+03 -6.021555148692575e+01 -2.918975276816622e+03
-1.147648406927278e+03 -6.140576675897017e+01 -2.918975276816622e+03
-1.147733788315616e+03 -6.332001967761261e+01 -2.918975276816622e+03
-1.147740003753425e+03 -6.432476495758669e+01 -2.918975276816622e+03
-1.147702012600578e+03 -6.622828772929226e+01 -2.918975276816622e+03
-1.147819617227420e+03 -6.728828108915673e+01 -2.918975276816622e+03
-1.147720710449536e+03 -6.983298651407860e+01 -2.918975276816622e+03
-1.147850017421782e+03 -7.051791497881625e+01 -2.918975276816622e+03
-1.147666971225568e+03 -7.208325957335849e+01 -2.918975276816622e+03
-1.147759212706060e+03 -7.426669173768558e+01 -2.918975276816622e+03
-1.147698733021937e+03 -7.526588431206498e+01 -2.918975276816622e+03
-1.147957191530518e+03 -7.622981377211556e+01 -2.918975276816622e+03
-1.147788771251302e+03 -7.832665549058517e+01 -2.918975276816622e+03
-1.147972429137405e+03 -8.035221640046888e+01 -2.918975276816622e+03
-1.147836967565057e+03 -8.146216228294027e+01 -2.918975276816622e+03
-1.147965952287658e+03 -8.334561212332169e+01 -2.918975276816622e+03
-1.147561134869327e+03 -8.502475844885969e+01 -2.918975276816622e+03
-1.147998121704006e+03 -8.769580575001875e+01 -2.918975276816622e+03
-1.148038695923492e+03 -8.955437073606814e+01 -2.918975276816622e+03
-1.147897153506895e+03 -9.052807525856350e+01 -2.918975276816622e+03
-1.147740345685918e+03 -9.207638199806944e+01 -2.918975276816622e+03
-1.147961487939282e+03 -9.487468658866997e+01 -2.918975276816622e+03
-1.147973419396160e+03 -9.580178490959210e+01 -2.918975276816622e+03
-1.147976039742158e+03 -9.850686699340118e+01 -2.918975276816622e+03
-1.147943444462640e+03 -1.002961358271704e+02 -2.918975276816622e+03
-1.147924680732338e+03 -1.013702734647296e+02 -2.918975276816622e+03
-1.147871689261309e+03 -1.032518002676792e+02 -2.918975276816622e+03
-1.147860173598863e+03 -1.042263741441756e+02 -2.918975276816622e+03
-1.147775345300081e+03 -1.061687232731748e+02 -2.918975276816622e+03
-1.147779702251502e+03 -1.071933971019756e+02 -2.918975276816622e+03
-1.147643058269759e+03 -1.096907463975487e+02 -2.918975276816622e+03
-1.147669186840213e+03 -1.103903182695367e+02 -2.918975276816622e+03
-1.147377453870566e+03 -1.122434503037134e+02 -2.918975276816622e+03
-1.147405690713216e+03 -1.141145248402593e+02 -2.918975276816622e+03
-1.147402634207780e+03 -1.143192421866356e+02 -2.918975276816622e+03
-1.147602247559782e+03 -1.157881077368858e+02 -2.918975276816622e+03
-1.147509168885958e+03 -1.183428634436939e+02 -2.918975276816622e+03
-1.147650554192397e+03 -1.202614399562947e+02 -2.918975276816622e+03
-1.147601396706108e+03 -1.213573214116112e+02 -2.918975276816622e+03
-1.147674653543507e+03 -1.232518607029049e+02 -2.918975276816622e+03
-1.147626723255363e+03 -1.247920555117447e+02 -2.918975276816622e+03
-1.147584895734706e+03 -1.296295749420704e+02 -2.918975276816622e+03
-1.147552161006959e+03 -1.303288268682962e+02 -2.918975276816622e+03
-1.147503051373869e+03 -1.321760330318734e+02 -2.918975276816622e+03
-1.147341673902553e+03 -1.340823636175374e+02 -2.918975276816622e+03
-1.147000180971568e+03 -1.343554064889507e+02 -2.918975276816622e+03
-1.147467302506789e+03 -1.357947180016373e+02 -2.918975276816622e+03
-1.147470930390708e+03 -1.384183817610368e+02 -2.918975276816622e+03
-1.147701391345835e+03 -1.401067578676245e+02 -2.918975276816622e+03
-1.147625290223606e+03 -1.412931769322155e+02 -2.918975276816622e+03
-1.147753711207174e+03 -1.431957974363313e+02 -2.918975276816622e+03
-1.147724202328422e+03 -1.441544906252931e+02 -2.918975276816622e+03
-1.147751547929893e+03 -1.461095544052236e+02 -2.918975276816622e+03
-1.147774536575567e+03 -1.471495472080138e+02 -2.918975276816622e+03
-1.147775566286181e+03 -1.496419457560020e+02 -2.918975276816622e+03
-1.147783558628661e+03 -1.503406416148236e+02 -2.918975276816622e+03
-1.147753061190767e+03 -1.520204128994566e+02 -2.918975276816622e+03
-1.147777267043885e+03 -1.540347754410137e+02 -2.918975276816622e+03
-1.148146228521563e+03 -1.542515310450733e+02 -2.918975276816622e+03
-1.147921645811094e+03 -1.560060251958192e+02 -2.918975276816622e+03
-1.147813035865857e+03 -1.601700580490965e+02 -2.918975276816622e+03
-1.147751487593750e+03 -1.612280511747454e+02 -2.918975276816622e+03
-1.147899644714721e+03 -1.632001740880751e+02 -2.918975276816622e+03
-1.147835083686641e+03 -1.647433533105218e+02 -2.918975276816622e+03
-1.147856166394755e+03 -1.696260922755052e+02 -2.918975276816622e+03
-1.147961022941063e+03 -1.703647812812328e+02 -2.918975276816622e+03
-1.148029140312090e+03 -1.723382288055887e+02 -2.918975276816622e+03
-1.148125436817407e+03 -1.741405070522825e+02 -2.918975276816622e+03
-1.147670615082257e+03 -1.739383313023224e+02 -2.918975276816622e+03
-1.147853151048756e+03 -1.756771886479588e+02 -2.918975276816622e+03
-1.147797212470568e+03 -1.783043726392706e+02 -2.918975276816622e+03
-1.147858914198902e+03 -1.801865111374385e+02 -2.918975276816622e+03
-1.147747931236898e+03 -1.812802914075533e+02 -2.918975276816622e+03
-1.147815132498353e+03 -1.831617661405007e+02 -2.918975276816622e+03
-1.147840973309569e+03 -1.847119045165494e+02 -2.918975276816622e+03
-1.147687511519586e+03 -1.895276340772853e+02 -2.918975276816622e+03
-1.147666224206179e+03 -1.902192006897442e+02 -2.918975276816622e+03
-1.147631452217474e+03 -1.919298369734769e+02 -2.918975276816622e+03
-1.147507299092071e+03 -1.939325736396993e+02 -2.918975276816622e+03
-1.147617619258133e+03 -1.943677971991807e+02 -2.918975276816622e+03
-1.147553321974578e+03 -1.960514779781844e+02 -2.918975276816622e+03
-1.147659565808697e+03 -2.001016651631678e+02 -2.918975276816622e+03
-1.147608977818564e+03 -2.011197736798274e+02 -2.918975276816622e+03
-1.147582023643446e+03 -2.031211954264651e+02 -2.918975276816622e+03
-1.147695347430337e+03 -2.040490812107853e+02 -2.918975276816622e+03
-1.147678208214654e+03 -2.060348442960044e+02 -2.918975276816622e+03
-1.147916767273415e+03 -2.070787410977821e+02 -2.918975276816622e+03
-1.147946157183200e+03 -2.095746247996495e+02 -2.918975276816622e+03
-1.148061352762124e+03 -2.103819373962129e+02 -2.918975276816622e+03
-1.147767739944564e+03 -2.124230576084047e+02 -2.918975276816622e+03
-1.147774416005213e+03 -2.142628054822522e+02 -2.918975276816622e+03
-1.148077024531678e+03 -2.139944946680033e+02 -2.918975276816622e+03
-1.148050416055608e+03 -2.156113687692815e+02 -2.918975276816622e+03
-1.147893171732434e+03 -2.182401454006629e+02 -2.918975276816622e+03
-1.147896405118240e+03 -2.201176184934095e+02 -2.918975276816622e+03
-1.147763385697247e+03 -2.212188875779431e+02 -2.918975276816622e+03
-1.147820349787330e+03 -2.230875722546824e+02 -2.918975276816622e+03
-1.147796552177846e+03 -2.246478401382610e+02 -2.918975276816622e+03
-1.147626990613864e+03 -2.294766762326159e+02 -2.918975276816622e+03
-1.147607259872021e+03 -2.301813095692636e+02 -2.918975276816622e+03
-1.147238179556160e+03 -2.319542260522337e+02 -2.918975276816622e+03
-1.147199923733309e+03 -2.337847941140566e+02 -2.918975276816622e+03
-1.147293930712179e+03 -2.338356859908144e+02 -2.918975276816622e+03
-1.147538695194918e+03 -2.355410014259667e+02 -2.918975276816622e+03
-1.147563395721741e+03 -2.381320598475689e+02 -2.918975276816622e+03
[...]
POINT_DATA 3611
VECTORS PK_force double
0.000000000000000e+00 0.000000000000000e+00 0.000000000000000e+00
0.000000000000000e+00 0.000000000000000e+00 0.000000000000000e+00
0.000000000000000e+00 0.000000000000000e+00 0.000000000000000e+00
0.000000000000000e+00 0.000000000000000e+00 0.000000000000000e+00
0.000000000000000e+00 0.000000000000000e+00 0.000000000000000e+00
0.000000000000000e+00 0.000000000000000e+00 0.000000000000000e+00
0.000000000000000e+00 0.000000000000000e+00 0.000000000000000e+00
0.000000000000000e+00 0.000000000000000e+00 0.000000000000000e+00
0.000000000000000e+00 0.000000000000000e+00 0.000000000000000e+00
0.000000000000000e+00 0.000000000000000e+00 0.000000000000000e+00
0.000000000000000e+00 0.000000000000000e+00 0.000000000000000e+00
0.000000000000000e+00 0.000000000000000e+00 0.000000000000000e+00
0.000000000000000e+00 0.000000000000000e+00 0.000000000000000e+00
0.000000000000000e+00 0.000000000000000e+00 0.000000000000000e+00
0.000000000000000e+00 0.000000000000000e+00 0.000000000000000e+00
0.000000000000000e+00 0.000000000000000e+00 0.000000000000000e+00
0.000000000000000e+00 0.000000000000000e+00 0.000000000000000e+00
0.000000000000000e+00 0.000000000000000e+00 0.000000000000000e+00
0.000000000000000e+00 0.000000000000000e+00 0.000000000000000e+00
0.000000000000000e+00 0.000000000000000e+00 0.000000000000000e+00
0.000000000000000e+00 0.000000000000000e+00 0.000000000000000e+00
0.000000000000000e+00 0.000000000000000e+00 0.000000000000000e+00
0.000000000000000e+00 0.000000000000000e+00 0.000000000000000e+00
0.000000000000000e+00 0.000000000000000e+00 0.000000000000000e+00
0.000000000000000e+00 0.000000000000000e+00 0.000000000000000e+00
0.000000000000000e+00 0.000000000000000e+00 0.000000000000000e+00
0.000000000000000e+00 0.000000000000000e+00 0.000000000000000e+00
0.000000000000000e+00 0.000000000000000e+00 0.000000000000000e+00
0.000000000000000e+00 0.000000000000000e+00 0.000000000000000e+00
0.000000000000000e+00 0.000000000000000e+00 0.000000000000000e+00
0.000000000000000e+00 0.000000000000000e+00 0.000000000000000e+00
0.000000000000000e+00 0.000000000000000e+00 0.000000000000000e+00
0.000000000000000e+00 0.000000000000000e+00 0.000000000000000e+00
0.000000000000000e+00 0.000000000000000e+00 0.000000000000000e+00
0.000000000000000e+00 0.000000000000000e+00 0.000000000000000e+00
0.000000000000000e+00 0.000000000000000e+00 0.000000000000000e+00
0.000000000000000e+00 0.000000000000000e+00 0.000000000000000e+00
0.000000000000000e+00 0.000000000000000e+00 0.000000000000000e+00
0.000000000000000e+00 0.000000000000000e+00 0.000000000000000e+00
0.000000000000000e+00 0.000000000000000e+00 0.000000000000000e+00
0.000000000000000e+00 0.000000000000000e+00 0.000000000000000e+00
0.000000000000000e+00 0.000000000000000e+00 0.000000000000000e+00
0.000000000000000e+00 0.000000000000000e+00 0.000000000000000e+00
0.000000000000000e+00 0.000000000000000e+00 0.000000000000000e+00
0.000000000000000e+00 0.000000000000000e+00 0.000000000000000e+00
0.000000000000000e+00 0.000000000000000e+00 0.000000000000000e+00
0.000000000000000e+00 0.000000000000000e+00 0.000000000000000e+00
0.000000000000000e+00 0.000000000000000e+00 0.000000000000000e+00
0.000000000000000e+00 0.000000000000000e+00 0.000000000000000e+00
0.000000000000000e+00 0.000000000000000e+00 0.000000000000000e+00
0.000000000000000e+00 0.000000000000000e+00 0.000000000000000e+00
0.000000000000000e+00 0.000000000000000e+00 0.000000000000000e+00
0.000000000000000e+00 0.000000000000000e+00 0.000000000000000e+00
0.000000000000000e+00 0.000000000000000e+00 0.000000000000000e+00
0.000000000000000e+00 0.000000000000000e+00 0.000000000000000e+00
0.000000000000000e+00 0.000000000000000e+00 0.000000000000000e+00
0.000000000000000e+00 0.000000000000000e+00 0.000000000000000e+00
0.000000000000000e+00 0.000000000000000e+00 0.000000000000000e+00
0.000000000000000e+00 0.000000000000000e+00 0.000000000000000e+00
0.000000000000000e+00 0.000000000000000e+00 0.000000000000000e+00
0.000000000000000e+00 0.000000000000000e+00 0.000000000000000e+00
0.000000000000000e+00 0.000000000000000e+00 0.000000000000000e+00
0.000000000000000e+00 0.000000000000000e+00 0.000000000000000e+00
0.000000000000000e+00 0.000000000000000e+00 0.000000000000000e+00
0.000000000000000e+00 0.000000000000000e+00 0.000000000000000e+00
0.000000000000000e+00 0.000000000000000e+00 0.000000000000000e+00
0.000000000000000e+00 0.000000000000000e+00 0.000000000000000e+00
0.000000000000000e+00 0.000000000000000e+00 0.000000000000000e+00
0.000000000000000e+00 0.000000000000000e+00 0.000000000000000e+00
0.000000000000000e+00 0.000000000000000e+00 0.000000000000000e+00
0.000000000000000e+00 0.000000000000000e+00 0.000000000000000e+00
0.000000000000000e+00 0.000000000000000e+00 0.000000000000000e+00
0.000000000000000e+00 0.000000000000000e+00 0.000000000000000e+00
0.000000000000000e+00 0.000000000000000e+00 0.000000000000000e+00
0.000000000000000e+00 0.000000000000000e+00 0.000000000000000e+00
0.000000000000000e+00 0.000000000000000e+00 0.000000000000000e+00
0.000000000000000e+00 0.000000000000000e+00 0.000000000000000e+00
0.000000000000000e+00 0.000000000000000e+00 0.000000000000000e+00
0.000000000000000e+00 0.000000000000000e+00 0.000000000000000e+00
0.000000000000000e+00 0.000000000000000e+00 0.000000000000000e+00
0.000000000000000e+00 0.000000000000000e+00 0.000000000000000e+00
0.000000000000000e+00 0.000000000000000e+00 0.000000000000000e+00
0.000000000000000e+00 0.000000000000000e+00 0.000000000000000e+00
0.000000000000000e+00 0.000000000000000e+00 0.000000000000000e+00
0.000000000000000e+00 0.000000000000000e+00 0.000000000000000e+00
0.000000000000000e+00 0.000000000000000e+00 0.000000000000000e+00
0.000000000000000e+00 0.000000000000000e+00 0.000000000000000e+00
0.000000000000000e+00 0.000000000000000e+00 0.000000000000000e+00
0.000000000000000e+00 0.000000000000000e+00 0.000000000000000e+00
0.000000000000000e+00 0.000000000000000e+00 0.000000000000000e+00
0.000000000000000e+00 0.000000000000000e+00 0.000000000000000e+00
0.000000000000000e+00 0.000000000000000e+00 0.000000000000000e+00
0.000000000000000e+00 0.000000000000000e+00 0.000000000000000e+00
0.000000000000000e+00 0.000000000000000e+00 0.000000000000000e+00
0.000000000000000e+00 0.000000000000000e+00 0.000000000000000e+00
0.000000000000000e+00 0.000000000000000e+00 0.000000000000000e+00
0.000000000000000e+00 0.000000000000000e+00 0.000000000000000e+00
0.000000000000000e+00 0.000000000000000e+00 0.000000000000000e+00
0.000000000000000e+00 0.000000000000000e+00 0.000000000000000e+00
0.000000000000000e+00 0.000000000000000e+00 0.000000000000000e+00
0.000000000000000e+00 0.000000000000000e+00 0.000000000000000e+00
0.000000000000000e+00 0.000000000000000e+00 0.000000000000000e+00
0.000000000000000e+00 0.000000000000000e+00 0.000000000000000e+00
0.000000000000000e+00 0.000000000000000e+00 0.000000000000000e+00
0.000000000000000e+00 0.000000000000000e+00 0.000000000000000e+00
0.000000000000000e+00 0.000000000000000e+00 0.000000000000000e+00
0.000000000000000e+00 0.000000000000000e+00 0.000000000000000e+00
0.000000000000000e+00 0.000000000000000e+00 0.000000000000000e+00
0.000000000000000e+00 0.000000000000000e+00 0.000000000000000e+00
0.000000000000000e+00 0.000000000000000e+00 0.000000000000000e+00
0.000000000000000e+00 0.000000000000000e+00 0.000000000000000e+00
0.000000000000000e+00 0.000000000000000e+00 0.000000000000000e+00
0.000000000000000e+00 0.000000000000000e+00 0.000000000000000e+00
0.000000000000000e+00 0.000000000000000e+00 0.000000000000000e+00
0.000000000000000e+00 0.000000000000000e+00 0.000000000000000e+00
0.000000000000000e+00 0.000000000000000e+00 0.000000000000000e+00
0.000000000000000e+00 0.000000000000000e+00 0.000000000000000e+00
0.000000000000000e+00 0.000000000000000e+00 0.000000000000000e+00
0.000000000000000e+00 0.000000000000000e+00 0.000000000000000e+00
0.000000000000000e+00 0.000000000000000e+00 0.000000000000000e+00
0.000000000000000e+00 0.000000000000000e+00 0.000000000000000e+00
0.000000000000000e+00 0.000000000000000e+00 0.000000000000000e+00
0.000000000000000e+00 0.000000000000000e+00 0.000000000000000e+00
0.000000000000000e+00 0.000000000000000e+00 0.000000000000000e+00
0.000000000000000e+00 0.000000000000000e+00 0.000000000000000e+00
0.000000000000000e+00 0.000000000000000e+00 0.000000000000000e+00
0.000000000000000e+00 0.000000000000000e+00 0.000000000000000e+00
0.000000000000000e+00 0.000000000000000e+00 0.000000000000000e+00
0.000000000000000e+00 0.000000000000000e+00 0.000000000000000e+00
0.000000000000000e+00 0.000000000000000e+00 0.000000000000000e+00
0.000000000000000e+00 0.000000000000000e+00 0.000000000000000e+00
0.000000000000000e+00 0.000000000000000e+00 0.000000000000000e+00
0.000000000000000e+00 0.000000000000000e+00 0.000000000000000e+00
0.000000000000000e+00 0.000000000000000e+00 0.000000000000000e+00
0.000000000000000e+00 0.000000000000000e+00 0.000000000000000e+00
0.000000000000000e+00 0.000000000000000e+00 0.000000000000000e+00
0.000000000000000e+00 0.000000000000000e+00 0.000000000000000e+00
0.000000000000000e+00 0.000000000000000e+00 0.000000000000000e+00
0.000000000000000e+00 0.000000000000000e+00 0.000000000000000e+00
0.000000000000000e+00 0.000000000000000e+00 0.000000000000000e+00
0.000000000000000e+00 0.000000000000000e+00 0.000000000000000e+00
0.000000000000000e+00 0.000000000000000e+00 0.000000000000000e+00
0.000000000000000e+00 0.000000000000000e+00 0.000000000000000e+00
0.000000000000000e+00 0.000000000000000e+00 0.000000000000000e+00
0.000000000000000e+00 0.000000000000000e+00 0.000000000000000e+00
0.000000000000000e+00 0.000000000000000e+00 0.000000000000000e+00
0.000000000000000e+00 0.000000000000000e+00 0.000000000000000e+00
0.000000000000000e+00 0.000000000000000e+00 0.000000000000000e+00
0.000000000000000e+00 0.000000000000000e+00 0.000000000000000e+00
0.000000000000000e+00 0.000000000000000e+00 0.000000000000000e+00
0.000000000000000e+00 0.000000000000000e+00 0.000000000000000e+00
0.000000000000000e+00 0.000000000000000e+00 0.000000000000000e+00
0.000000000000000e+00 0.000000000000000e+00 0.000000000000000e+00
0.000000000000000e+00 0.000000000000000e+00 0.000000000000000e+00
0.000000000000000e+00 0.000000000000000e+00 0.000000000000000e+00
0.000000000000000e+00 0.000000000000000e+00 0.000000000000000e+00
0.000000000000000e+00 0.000000000000000e+00 0.000000000000000e+00
0.000000000000000e+00 0.000000000000000e+00 0.000000000000000e+00
0.000000000000000e+00 0.000000000000000e+00 0.000000000000000e+00
0.000000000000000e+00 0.000000000000000e+00 0.000000000000000e+00
0.000000000000000e+00 0.000000000000000e+00 0.000000000000000e+00
0.000000000000000e+00 0.000000000000000e+00 0.000000000000000e+00
0.000000000000000e+00 0.000000000000000e+00 0.000000000000000e+00
0.000000000000000e+00 0.000000000000000e+00 0.000000000000000e+00
0.000000000000000e+00 0.000000000000000e+00 0.000000000000000e+00
0.000000000000000e+00 0.000000000000000e+00 0.000000000000000e+00
0.000000000000000e+00 0.000000000000000e+00 0.000000000000000e+00
0.000000000000000e+00 0.000000000000000e+00 0.000000000000000e+00
0.000000000000000e+00 0.000000000000000e+00 0.000000000000000e+00
0.000000000000000e+00 0.000000000000000e+00 0.000000000000000e+00
0.000000000000000e+00 0.000000000000000e+00 0.000000000000000e+00
0.000000000000000e+00 0.000000000000000e+00 0.000000000000000e+00
0.000000000000000e+00 0.000000000000000e+00 0.000000000000000e+00
0.000000000000000e+00 0.000000000000000e+00 0.000000000000000e+00
0.000000000000000e+00 0.000000000000000e+00 0.000000000000000e+00
0.000000000000000e+00 0.000000000000000e+00 0.000000000000000e+00
0.000000000000000e+00 0.000000000000000e+00 0.000000000000000e+00
0.000000000000000e+00 0.000000000000000e+00 0.000000000000000e+00
0.000000000000000e+00 0.000000000000000e+00 0.000000000000000e+00
0.000000000000000e+00 0.000000000000000e+00 0.000000000000000e+00
0.000000000000000e+00 0.000000000000000e+00 0.000000000000000e+00
0.000000000000000e+00 0.000000000000000e+00 0.000000000000000e+00
0.000000000000000e+00 0.000000000000000e+00 0.000000000000000e+00
0.000000000000000e+00 0.000000000000000e+00 0.000000000000000e+00
0.000000000000000e+00 0.000000000000000e+00 0.000000000000000e+00
0.000000000000000e+00 0.000000000000000e+00 0.000000000000000e+00
0.000000000000000e+00 0.000000000000000e+00 0.000000000000000e+00
0.000000000000000e+00 0.000000000000000e+00 0.000000000000000e+00
0.000000000000000e+00 0.000000000000000e+00 0.000000000000000e+00
0.000000000000000e+00 0.000000000000000e+00 0.000000000000000e+00
0.000000000000000e+00 0.000000000000000e+00 0.000000000000000e+00
0.000000000000000e+00 0.000000000000000e+00 0.000000000000000e+00
0.000000000000000e+00 0.000000000000000e+00 0.000000000000000e+00
0.000000000000000e+00 0.000000000000000e+00 0.000000000000000e+00
0.000000000000000e+00 0.000000000000000e+00 0.000000000000000e+00
0.000000000000000e+00 0.000000000000000e+00 0.000000000000000e+00
0.000000000000000e+00 0.000000000000000e+00 0.000000000000000e+00
0.000000000000000e+00 0.000000000000000e+00 0.000000000000000e+00
0.000000000000000e+00 0.000000000000000e+00 0.000000000000000e+00
0.000000000000000e+00 0.000000000000000e+00 0.000000000000000e+00
0.000000000000000e+00 0.000000000000000e+00 0.000000000000000e+00
0.000000000000000e+00 0.000000000000000e+00 0.000000000000000e+00
0.000000000000000e+00 0.000000000000000e+00 0.000000000000000e+00
0.000000000000000e+00 0.000000000000000e+00 0.000000000000000e+00
0.000000000000000e+00 0.000000000000000e+00 0.000000000000000e+00
0.000000000000000e+00 0.000000000000000e+00 0.000000000000000e+00
0.000000000000000e+00 0.000000000000000e+00 0.000000000000000e+00
0.000000000000000e+00 0.000000000000000e+00 0.000000000000000e+00
0.000000000000000e+00 0.000000000000000e+00 0.000000000000000e+00
0.000000000000000e+00 0.000000000000000e+00 0.000000000000000e+00
0.000000000000000e+00 0.000000000000000e+00 0.000000000000000e+00
0.000000000000000e+00 0.000000000000000e+00 0.000000000000000e+00
0.000000000000000e+00 0.000000000000000e+00 0.000000000000000e+00
0.000000000000000e+00 0.000000000000000e+00 0.000000000000000e+00
0.000000000000000e+00 0.000000000000000e+00 0.000000000000000e+00
0.000000000000000e+00 0.000000000000000e+00 0.000000000000000e+00
0.000000000000000e+00 0.000000000000000e+00 0.000000000000000e+00
0.000000000000000e+00 0.000000000000000e+00 0.000000000000000e+00
0.000000000000000e+00 0.000000000000000e+00 0.000000000000000e+00
0.000000000000000e+00 0.000000000000000e+00 0.000000000000000e+00
0.000000000000000e+00 0.000000000000000e+00 0.000000000000000e+00
0.000000000000000e+00 0.000000000000000e+00 0.000000000000000e+00
0.000000000000000e+00 0.000000000000000e+00 0.000000000000000e+00
0.000000000000000e+00 0.000000000000000e+00 0.000000000000000e+00
0.000000000000000e+00 0.000000000000000e+00 0.000000000000000e+00
0.000000000000000e+00 0.000000000000000e+00 0.000000000000000e+00
0.000000000000000e+00 0.000000000000000e+00 0.000000000000000e+00
0.000000000000000e+00 0.000000000000000e+00 0.000000000000000e+00
0.000000000000000e+00 0.000000000000000e+00 0.000000000000000e+00
0.000000000000000e+00 0.000000000000000e+00 0.000000000000000e+00
0.000000000000000e+00 0.000000000000000e+00 0.000000000000000e+00
0.000000000000000e+00 0.000000000000000e+00 0.000000000000000e+00
0.000000000000000e+00 0.000000000000000e+00 0.000000000000000e+00
0.000000000000000e+00 0.000000000000000e+00 0.000000000000000e+00
0.000000000000000e+00 0.000000000000000e+00 0.000000000000000e+00
0.000000000000000e+00 0.000000000000000e+00 0.000000000000000e+00
0.000000000000000e+00 0.000000000000000e+00 0.000000000000000e+00
0.000000000000000e+00 0.000000000000000e+00 0.000000000000000e+00
0.000000000000000e+00 0.000000000000000e+00 0.000000000000000e+00
0.000000000000000e+00 0.000000000000000e+00 0.000000000000000e+00
0.000000000000000e+00 0.000000000000000e+00 0.000000000000000e+00
0.000000000000000e+00 0.000000000000000e+00 0.000000000000000e+00
0.000000000000000e+00 0.000000000000000e+00 0.000000000000000e+00
0.000000000000000e+00 0.000000000000000e+00 0.000000000000000e+00
0.000000000000000e+00 0.000000000000000e+00 0.000000000000000e+00
0.000000000000000e+00 0.000000000000000e+00 0.000000000000000e+00
0.000000000000000e+00 0.000000000000000e+00 0.000000000000000e+00
0.000000000000000e+00 0.000000000000000e+00 0.000000000000000e+00
0.000000000000000e+00 0.000000000000000e+00 0.000000000000000e+00
0.000000000000000e+00 0.000000000000000e+00 0.000000000000000e+00
0.000000000000000e+00 0.000000000000000e+00 0.000000000000000e+00
0.000000000000000e+00 0.000000000000000e+00 0.000000000000000e+00
0.000000000000000e+00 0.000000000000000e+00 0.000000000000000e+00
0.000000000000000e+00 0.000000000000000e+00 0.000000000000000e+00
0.000000000000000e+00 0.000000000000000e+00 0.000000000000000e+00
0.000000000000000e+00 0.000000000000000e+00 0.000000000000000e+00
0.000000000000000e+00 0.000000000000000e+00 0.000000000000000e+00
0.000000000000000e+00 0.000000000000000e+00 0.000000000000000e+00
0.000000000000000e+00 0.000000000000000e+00 0.000000000000000e+00
0.000000000000000e+00 0.000000000000000e+00 0.000000000000000e+00
0.000000000000000e+00 0.000000000000000e+00 0.000000000000000e+00
0.000000000000000e+00 0.000000000000000e+00 0.000000000000000e+00
0.000000000000000e+00 0.000000000000000e+00 0.000000000000000e+00
0.000000000000000e+00 0.000000000000000e+00 0.000000000000000e+00
0.000000000000000e+00 0.000000000000000e+00 0.000000000000000e+00
0.000000000000000e+00 0.000000000000000e+00 0.000000000000000e+00
0.000000000000000e+00 0.000000000000000e+00 0.000000000000000e+00
0.000000000000000e+00 0.000000000000000e+00 0.000000000000000e+00
0.000000000000000e+00 0.000000000000000e+00 0.000000000000000e+00
0.000000000000000e+00 0.000000000000000e+00 0.000000000000000e+00
0.000000000000000e+00 0.000000000000000e+00 0.000000000000000e+00
0.000000000000000e+00 0.000000000000000e+00 0.000000000000000e+00
0.000000000000000e+00 0.000000000000000e+00 0.000000000000000e+00
0.000000000000000e+00 0.000000000000000e+00 0.000000000000000e+00
0.000000000000000e+00 0.000000000000000e+00 0.000000000000000e+00
0.000000000000000e+00 0.000000000000000e+00 0.000000000000000e+00
0.000000000000000e+00 0.000000000000000e+00 0.000000000000000e+00
0.000000000000000e+00 0.000000000000000e+00 0.000000000000000e+00
0.000000000000000e+00 0.000000000000000e+00 0.000000000000000e+00
0.000000000000000e+00 0.000000000000000e+00 0.000000000000000e+00
0.000000000000000e+00 0.000000000000000e+00 0.000000000000000e+00
0.000000000000000e+00 0.000000000000000e+00 0.000000000000000e+00
0.000000000000000e+00 0.000000000000000e+00 0.000000000000000e+00
0.000000000000000e+00 0.000000000000000e+00 0.000000000000000e+00
0.000000000000000e+00 0.000000000000000e+00 0.000000000000000e+00
0.000000000000000e+00 0.000000000000000e+00 0.000000000000000e+00
0.000000000000000e+00 0.000000000000000e+00 0.000000000000000e+00
0.000000000000000e+00 0.000000000000000e+00 0.000000000000000e+00
0.000000000000000e+00 0.000000000000000e+00 0.000000000000000e+00
0.000000000000000e+00 0.000000000000000e+00 0.000000000000000e+00
0.000000000000000e+00 0.000000000000000e+00 0.000000000000000e+00
0.000000000000000e+00 0.000000000000000e+00 0.000000000000000e+00
0.000000000000000e+00 0.000000000000000e+00 0.000000000000000e+00
0.000000000000000e+00 0.000000000000000e+00 0.000000000000000e+00
0.000000000000000e+00 0.000000000000000e+00 0.000000000000000e+00
0.000000000000000e+00 0.000000000000000e+00 0.000000000000000e+00
0.000000000000000e+00 0.000000000000000e+00 0.000000000000000e+00
0.000000000000000e+00 0.000000000000000e+00 0.000000000000000e+00
0.000000000000000e+00 0.000000000000000e+00 0.000000000000000e+00
0.000000000000000e+00 0.000000000000000e+00 0.000000000000000e+00
0.000000000000000e+00 0.000000000000000e+00 0.000000000000000e+00
0.000000000000000e+00 0.000000000000000e+00 0.000000000000000e+00