# vtk DataFile Version 3.0
# Dislocation lines converted from MoDELib file
ASCII
DATASET UNSTRUCTURED_GRID
POINTS 5112 double
-1.429999999999877e+00  3.863858941524650e+02 -2.918975276816622e+03
-1.429999999999897e+00 -3.863858941524674e+02 -2.918975276816622e+03
-1.429999999999897e+00  0.000000000000000e+00 -2.918975276816622e+03
-1.430000000000221e+00  0.000000000000000e+00  2.918975276816619e+03
-1.430000000000221e+00 -3.863858941524674e+02  2.918975276816619e+03
-1.430000000000201e+00  3.863858941524653e+02  2.918975276816619e+03
-1.147600174476676e+03  1.433620916084860e+00 -2.918975276816622e+03
-1.147818282143885e+03 -1.062917837874374e+00 -2.918975276816622e+03
-1.148488838230486e+03 -2.079628202245144e+00 -2.918975276816622e+03
-1.149371338718091e+03 -3.130531275816753e+00 -2.918975276816622e+03
-1.148243518672166e+03 -4.124351414744675e+00 -2.918975276816622e+03
-1.147724920658561e+03 -5.858354259893146e+00 -2.918975276816622e+03
-1.148697529967670e+03 -5.499112456207619e+00 -2.918975276816622e+03
-1.148804507630341e+03 -6.680681480297821e+00 -2.918975276816622e+03
-1.148390911304770e+03 -7.994520077107012e+00 -2.918975276816622e+03
-1.146869467399946e+03 -1.032611294679922e+01 -2.918975276816622e+03
-1.147857894133291e+03 -1.078031235698356e+01 -2.918975276816622e+03
-1.147586958554063e+03 -1.105864119229799e+01 -2.918975276816622e+03
-1.147801293737947e+03 -1.174621883110461e+01 -2.918975276816622e+03
-1.147459731466574e+03 -1.345694229889573e+01 -2.918975276816622e+03
-1.147119213249453e+03 -1.439717559318295e+01 -2.918975276816622e+03
-1.147135231462839e+03 -1.728031612639145e+01 -2.918975276816622e+03
-1.147985606564074e+03 -2.025266334567897e+01 -2.918975276816622e+03
-1.149083558414070e+03 -2.230902260013383e+01 -2.918975276816622e+03
-1.147774491311723e+03 -2.199686347947438e+01 -2.918975276816622e+03
-1.148024064102757e+03 -2.386901560319267e+01 -2.918975276816622e+03
-1.148661594811674e+03 -2.652878563400289e+01 -2.918975276816622e+03
-1.148640616551090e+03 -2.670053569775343e+01 -2.918975276816622e+03
-1.147898500920101e+03 -2.891882263603173e+01 -2.918975276816622e+03
-1.149536962432031e+03 -2.933340286522986e+01 -2.918975276816622e+03
-1.148509119356155e+03 -3.108352794712296e+01 -2.918975276816622e+03
-1.148075486175757e+03 -3.208826382431799e+01 -2.918975276816622e+03
-1.147948558191726e+03 -3.324794031556712e+01 -2.918975276816622e+03
-1.147472990348490e+03 -3.410166718950440e+01 -2.918975276816622e+03
-1.148130861493198e+03 -3.541664622256827e+01 -2.918975276816622e+03
-1.148248231035369e+03 -3.560019238778005e+01 -2.918975276816622e+03
-1.146971286050524e+03 -3.634321684684954e+01 -2.918975276816622e+03
-1.146933933695656e+03 -3.732778631183487e+01 -2.918975276816622e+03
-1.147202235083007e+03 -3.886828137786866e+01 -2.918975276816622e+03
-1.147825437372367e+03 -4.033903394070250e+01 -2.918975276816622e+03
-1.148135410323946e+03 -4.135559900954342e+01 -2.918975276816622e+03
-1.147892312092599e+03 -4.359208259374829e+01 -2.918975276816622e+03
-1.147455131040061e+03 -4.465114076682210e+01 -2.918975276816622e+03
-1.147485097571480e+03 -4.625815063708212e+01 -2.918975276816622e+03
-1.148010969458733e+03 -4.726119801203946e+01 -2.918975276816622e+03
-1.148322985707403e+03 -4.972858750591946e+01 -2.918975276816622e+03
-1.148126306427625e+03 -5.062729636782031e+01 -2.918975276816622e+03
-1.147615096092440e+03 -5.204271586595227e+01 -2.918975276816622e+03
-1.147325499306433e+03 -5.413805227526166e+01 -2.918975276816622e+03
-1.147043766145160e+03 -5.445790237441869e+01 -2.918975276816622e+03
-1.148105467441849e+03 -5.532180062559075e+01 -2.918975276816622e+03
-1.148228762074588e+03 -5.553310092072196e+01 -2.918975276816622e+03
-1.146998839947547e+03 -5.635475100431516e+01 -2.918975276816622e+03
-1.147035004968333e+03 -5.734048414029347e+01 -2.918975276816622e+03
-1.147285448269442e+03 -5.887058696500805e+01 -2.918975276816622e+03
-1.147836824205313e+03 -6.030139114132550e+01 -2.918975276816622e+03
-1.148152516898134e+03 -6.131699709844869e+01 -2.918975276816622e+03
-1.147904392680630e+03 -6.356535790493878e+01 -2.918975276816622e+03
-1.147499873550607e+03 -6.461217682619949e+01 -2.918975276816622e+03
-1.147521905324517e+03 -6.609879829484380e+01 -2.918975276816622e+03
-1.148017543490907e+03 -6.723026733750352e+01 -2.918975276816622e+03
-1.148327182187505e+03 -6.969749004777431e+01 -2.918975276816622e+03
-1.148126926877165e+03 -7.059415370170031e+01 -2.918975276816622e+03
-1.147616759720339e+03 -7.201505450764637e+01 -2.918975276816622e+03
-1.147327402459205e+03 -7.411566735392536e+01 -2.918975276816622e+03
-1.147077203938748e+03 -7.442728806525324e+01 -2.918975276816622e+03
-1.148112467645959e+03 -7.528163128647898e+01 -2.918975276816622e+03
-1.148225847670964e+03 -7.549922930952913e+01 -2.918975276816622e+03
-1.147001088962289e+03 -7.631262179426994e+01 -2.918975276816622e+03
-1.147040635270751e+03 -7.729601508651874e+01 -2.918975276816622e+03
-1.147289855080493e+03 -7.884463494288896e+01 -2.918975276816622e+03
-1.147837598581350e+03 -8.026847950491486e+01 -2.918975276816622e+03
-1.148155825917026e+03 -8.128331107800373e+01 -2.918975276816622e+03
-1.147903391828735e+03 -8.353691066644323e+01 -2.918975276816622e+03
-1.147464862711280e+03 -8.458828472528924e+01 -2.918975276816622e+03
-1.147493406077843e+03 -8.619027433211113e+01 -2.918975276816622e+03
-1.148016081432888e+03 -8.719809796716453e+01 -2.918975276816622e+03
-1.148327020135182e+03 -8.966696910536777e+01 -2.918975276816622e+03
-1.148126270666398e+03 -9.056380655309890e+01 -2.918975276816622e+03
-1.147623713179170e+03 -9.198549256802546e+01 -2.918975276816622e+03
-1.147351968293856e+03 -9.408237997326137e+01 -2.918975276816622e+03
-1.147017652870479e+03 -9.437820451812286e+01 -2.918975276816622e+03
-1.148096473540514e+03 -9.526706130239602e+01 -2.918975276816622e+03
-1.148232386724384e+03 -9.547037046147973e+01 -2.918975276816622e+03
-1.146991986976178e+03 -9.630907452478127e+01 -2.918975276816622e+03
-1.147028444581990e+03 -9.729423610435967e+01 -2.918975276816622e+03
-1.147275720971632e+03 -9.879604922474455e+01 -2.918975276816622e+03
-1.147837157974899e+03 -1.002430873797242e+02 -2.918975276816622e+03
-1.148150723115733e+03 -1.012551280280870e+02 -2.918975276816622e+03
-1.147907784997058e+03 -1.034973771635821e+02 -2.918975276816622e+03
-1.147502203324139e+03 -1.045525505618434e+02 -2.918975276816622e+03
-1.147522942830901e+03 -1.060372724776567e+02 -2.918975276816622e+03
-1.148018178571751e+03 -1.071638323715612e+02 -2.918975276816622e+03
-1.148329345660051e+03 -1.096345815669666e+02 -2.918975276816622e+03
-1.148127935748064e+03 -1.105325913801135e+02 -2.918975276816622e+03
-1.147619967119853e+03 -1.119528652500533e+02 -2.918975276816622e+03
-1.147334024229258e+03 -1.140545425428167e+02 -2.918975276816622e+03
-1.147067636253763e+03 -1.143609954699995e+02 -2.918975276816622e+03
-1.148109870229948e+03 -1.152208722148496e+02 -2.918975276816622e+03
-1.148227797159674e+03 -1.154379410086878e+02 -2.918975276816622e+03
-1.147001514110728e+03 -1.162494441773679e+02 -2.918975276816622e+03
-1.147043412264988e+03 -1.172327850904392e+02 -2.918975276816622e+03
-1.147289770878668e+03 -1.187802263741564e+02 -2.918975276816622e+03
-1.147838034157607e+03 -1.202049890767066e+02 -2.918975276816622e+03
-1.148156081503040e+03 -1.212186927315507e+02 -2.918975276816622e+03
-1.147904027461722e+03 -1.234692681850849e+02 -2.918975276816622e+03
-1.147464079258924e+03 -1.245273919315172e+02 -2.918975276816622e+03
-1.147494665538597e+03 -1.261274213903862e+02 -2.918975276816622e+03
-1.148018962227292e+03 -1.271345336667474e+02 -2.918975276816622e+03
-1.148328732398482e+03 -1.296037771246770e+02 -2.918975276816622e+03
-1.148128108239423e+03 -1.305002236102173e+02 -2.918975276816622e+03
-1.147621050423799e+03 -1.319220484084741e+02 -2.918975276816622e+03
-1.147338643466325e+03 -1.340262859664607e+02 -2.918975276816622e+03
-1.147076569722132e+03 -1.343268321978435e+02 -2.918975276816622e+03
-1.148111125504441e+03 -1.351868152868970e+02 -2.918975276816622e+03
-1.148228404328655e+03 -1.354055113130279e+02 -2.918975276816622e+03
-1.147002168667149e+03 -1.362218350532121e+02 -2.918975276816622e+03
-1.147042878788854e+03 -1.372074220697910e+02 -2.918975276816622e+03
-1.147290534481697e+03 -1.387490369576831e+02 -2.918975276816622e+03
-1.147838333478502e+03 -1.401732714634661e+02 -2.918975276816622e+03
-1.148156315474128e+03 -1.411881375514031e+02 -2.918975276816622e+03
-1.147906823053834e+03 -1.434382198574709e+02 -2.918975276816622e+03
-1.147501876410017e+03 -1.444859518886988e+02 -2.918975276816622e+03
-1.147522917981253e+03 -1.459735072643240e+02 -2.918975276816622e+03
-1.148018461671794e+03 -1.471009581741330e+02 -2.918975276816622e+03
-1.148330181953055e+03 -1.495718120451328e+02 -2.918975276816622e+03
-1.148127479148254e+03 -1.504701442133118e+02 -2.918975276816622e+03
-1.147620968435436e+03 -1.518899686920550e+02 -2.918975276816622e+03
-1.147339669183179e+03 -1.539951890182749e+02 -2.918975276816622e+03
-1.147081231919675e+03 -1.542945321336029e+02 -2.918975276816622e+03
-1.148111640923084e+03 -1.551534596834359e+02 -2.918975276816622e+03
-1.148229278373044e+03 -1.553741999596762e+02 -2.918975276816622e+03
-1.147003641080249e+03 -1.561925848498796e+02 -2.918975276816622e+03
-1.147042412795146e+03 -1.571755036276190e+02 -2.918975276816622e+03
-1.147289270691799e+03 -1.587145835721113e+02 -2.918975276816622e+03
-1.147839104770355e+03 -1.601418572157808e+02 -2.918975276816622e+03
-1.148158136147215e+03 -1.611555333741909e+02 -2.918975276816622e+03
-1.147906539661261e+03 -1.634091447476062e+02 -2.918975276816622e+03
-1.147467220824884e+03 -1.644629170600451e+02 -2.918975276816622e+03
-1.147494876654254e+03 -1.660617532381886e+02 -2.918975276816622e+03
-1.148017921725431e+03 -1.670713980361226e+02 -2.918975276816622e+03
-1.148329426997895e+03 -1.695398762114581e+02 -2.918975276816622e+03
-1.148128607206570e+03 -1.704366331105885e+02 -2.918975276816622e+03
[...]
POINT_DATA 5112
VECTORS PK_force double
0.000000000000000e+00 0.000000000000000e+00 0.000000000000000e+00
0.000000000000000e+00 0.000000000000000e+00 0.000000000000000e+00
0.000000000000000e+00 0.000000000000000e+00 0.000000000000000e+00
0.000000000000000e+00 0.000000000000000e+00 0.000000000000000e+00
0.000000000000000e+00 0.000000000000000e+00 0.000000000000000e+00
0.000000000000000e+00 0.000000000000000e+00 0.000000000000000e+00
0.000000000000000e+00 0.000000000000000e+00 0.000000000000000e+00
0.000000000000000e+00 0.000000000000000e+00 0.000000000000000e+00
0.000000000000000e+00 0.000000000000000e+00 0.000000000000000e+00
0.000000000000000e+00 0.000000000000000e+00 0.000000000000000e+00
0.000000000000000e+00 0.000000000000000e+00 0.000000000000000e+00
0.000000000000000e+00 0.000000000000000e+00 0.000000000000000e+00
0.000000000000000e+00 0.000000000000000e+00 0.000000000000000e+00
0.000000000000000e+00 0.000000000000000e+00 0.000000000000000e+00
0.000000000000000e+00 0.000000000000000e+00 0.000000000000000e+00
0.000000000000000e+00 0.000000000000000e+00 0.000000000000000e+00
0.000000000000000e+00 0.000000000000000e+00 0.000000000000000e+00
0.000000000000000e+00 0.000000000000000e+00 0.000000000000000e+00
0.000000000000000e+00 0.000000000000000e+00 0.000000000000000e+00
0.000000000000000e+00 0.000000000000000e+00 0.000000000000000e+00
0.000000000000000e+00 0.000000000000000e+00 0.000000000000000e+00
0.000000000000000e+00 0.000000000000000e+00 0.000000000000000e+00
0.000000000000000e+00 0.000000000000000e+00 0.000000000000000e+00
0.000000000000000e+00 0.000000000000000e+00 0.000000000000000e+00
0.000000000000000e+00 0.000000000000000e+00 0.000000000000000e+00
0.000000000000000e+00 0.000000000000000e+00 0.000000000000000e+00
0.000000000000000e+00 0.000000000000000e+00 0.000000000000000e+00
0.000000000000000e+00 0.000000000000000e+00 0.000000000000000e+00
0.000000000000000e+00 0.000000000000000e+00 0.000000000000000e+00
0.000000000000000e+00 0.000000000000000e+00 0.000000000000000e+00
0.000000000000000e+00 0.000000000000000e+00 0.000000000000000e+00
0.000000000000000e+00 0.000000000000000e+00 0.000000000000000e+00
0.000000000000000e+00 0.000000000000000e+00 0.000000000000000e+00
0.000000000000000e+00 0.000000000000000e+00 0.000000000000000e+00
0.000000000000000e+00 0.000000000000000e+00 0.000000000000000e+00
0.000000000000000e+00 0.000000000000000e+00 0.000000000000000e+00
0.000000000000000e+00 0.000000000000000e+00 0.000000000000000e+00
0.000000000000000e+00 0.000000000000000e+00 0.000000000000000e+00
0.000000000000000e+00 0.000000000000000e+00 0.000000000000000e+00
0.000000000000000e+00 0.000000000000000e+00 0.000000000000000e+00
0.000000000000000e+00 0.000000000000000e+00 0.000000000000000e+00
0.000000000000000e+00 0.000000000000000e+00 0.000000000000000e+00
0.000000000000000e+00 0.000000000000000e+00 0.000000000000000e+00
0.000000000000000e+00 0.000000000000000e+00 0.000000000000000e+00
0.000000000000000e+00 0.000000000000000e+00 0.000000000000000e+00
0.000000000000000e+00 0.000000000000000e+00 0.000000000000000e+00
0.000000000000000e+00 0.000000000000000e+00 0.000000000000000e+00
0.000000000000000e+00 0.000000000000000e+00 0.000000000000000e+00
0.000000000000000e+00 0.000000000000000e+00 0.000000000000000e+00
0.000000000000000e+00 0.000000000000000e+00 0.000000000000000e+00
0.000000000000000e+00 0.000000000000000e+00 0.000000000000000e+00
0.000000000000000e+00 0.000000000000000e+00 0.000000000000000e+00
0.000000000000000e+00 0.000000000000000e+00 0.000000000000000e+00
0.000000000000000e+00 0.000000000000000e+00 0.000000000000000e+00
0.000000000000000e+00 0.000000000000000e+00 0.000000000000000e+00
0.000000000000000e+00 0.000000000000000e+00 0.000000000000000e+00
0.000000000000000e+00 0.000000000000000e+00 0.000000000000000e+00
0.000000000000000e+00 0.000000000000000e+00 0.000000000000000e+00
0.000000000000000e+00 0.000000000000000e+00 0.000000000000000e+00
0.000000000000000e+00 0.000000000000000e+00 0.000000000000000e+00
0.000000000000000e+00 0.000000000000000e+00 0.000000000000000e+00
0.000000000000000e+00 0.000000000000000e+00 0.000000000000000e+00
0.000000000000000e+00 0.000000000000000e+00 0.000000000000000e+00
0.000000000000000e+00 0.000000000000000e+00 0.000000000000000e+00
0.000000000000000e+00 0.000000000000000e+00 0.000000000000000e+00
0.000000000000000e+00 0.000000000000000e+00 0.000000000000000e+00
0.000000000000000e+00 0.000000000000000e+00 0.000000000000000e+00
0.000000000000000e+00 0.000000000000000e+00 0.000000000000000e+00
0.000000000000000e+00 0.000000000000000e+00 0.000000000000000e+00
0.000000000000000e+00 0.000000000000000e+00 0.000000000000000e+00
0.000000000000000e+00 0.000000000000000e+00 0.000000000000000e+00
0.000000000000000e+00 0.000000000000000e+00 0.000000000000000e+00
0.000000000000000e+00 0.000000000000000e+00 0.000000000000000e+00
0.000000000000000e+00 0.000000000000000e+00 0.000000000000000e+00
0.000000000000000e+00 0.000000000000000e+00 0.000000000000000e+00
0.000000000000000e+00 0.000000000000000e+00 0.000000000000000e+00
0.000000000000000e+00 0.000000000000000e+00 0.000000000000000e+00
0.000000000000000e+00 0.000000000000000e+00 0.000000000000000e+00
0.000000000000000e+00 0.000000000000000e+00 0.000000000000000e+00
0.000000000000000e+00 0.000000000000000e+00 0.000000000000000e+00
0.000000000000000e+00 0.000000000000000e+00 0.000000000000000e+00
0.000000000000000e+00 0.000000000000000e+00 0.000000000000000e+00
0.000000000000000e+00 0.000000000000000e+00 0.000000000000000e+00
0.000000000000000e+00 0.000000000000000e+00 0.000000000000000e+00
0.000000000000000e+00 0.000000000000000e+00 0.000000000000000e+00
0.000000000000000e+00 0.000000000000000e+00 0.000000000000000e+00
0.000000000000000e+00 0.000000000000000e+00 0.000000000000000e+00
0.000000000000000e+00 0.000000000000000e+00 0.000000000000000e+00
0.000000000000000e+00 0.000000000000000e+00 0.000000000000000e+00
0.000000000000000e+00 0.000000000000000e+00 0.000000000000000e+00
0.000000000000000e+00 0.000000000000000e+00 0.000000000000000e+00
0.000000000000000e+00 0.000000000000000e+00 0.000000000000000e+00
0.000000000000000e+00 0.000000000000000e+00 0.000000000000000e+00
0.000000000000000e+00 0.000000000000000e+00 0.000000000000000e+00
0.000000000000000e+00 0.000000000000000e+00 0.000000000000000e+00
0.000000000000000e+00 0.000000000000000e+00 0.000000000000000e+00
0.000000000000000e+00 0.000000000000000e+00 0.000000000000000e+00
0.000000000000000e+00 0.000000000000000e+00 0.000000000000000e+00
0.000000000000000e+00 0.000000000000000e+00 0.000000000000000e+00
0.000000000000000e+00 0.000000000000000e+00 0.000000000000000e+00
0.000000000000000e+00 0.000000000000000e+00 0.000000000000000e+00
0.000000000000000e+00 0.000000000000000e+00 0.000000000000000e+00
0.000000000000000e+00 0.000000000000000e+00 0.000000000000000e+00
0.000000000000000e+00 0.000000000000000e+00 0.000000000000000e+00
0.000000000000000e+00 0.000000000000000e+00 0.000000000000000e+00
0.000000000000000e+00 0.000000000000000e+00 0.000000000000000e+00
0.000000000000000e+00 0.000000000000000e+00 0.000000000000000e+00
0.000000000000000e+00 0.000000000000000e+00 0.000000000000000e+00
0.000000000000000e+00 0.000000000000000e+00 0.000000000000000e+00
0.000000000000000e+00 0.000000000000000e+00 0.000000000000000e+00
0.000000000000000e+00 0.000000000000000e+00 0.000000000000000e+00
0.000000000000000e+00 0.000000000000000e+00 0.000000000000000e+00
0.000000000000000e+00 0.000000000000000e+00 0.000000000000000e+00
0.000000000000000e+00 0.000000000000000e+00 0.000000000000000e+00
0.000000000000000e+00 0.000000000000000e+00 0.000000000000000e+00
0.000000000000000e+00 0.000000000000000e+00 0.000000000000000e+00
0.000000000000000e+00 0.000000000000000e+00 0.000000000000000e+00
0.000000000000000e+00 0.000000000000000e+00 0.000000000000000e+00
0.000000000000000e+00 0.000000000000000e+00 0.000000000000000e+00
0.000000000000000e+00 0.000000000000000e+00 0.000000000000000e+00
0.000000000000000e+00 0.000000000000000e+00 0.000000000000000e+00
0.000000000000000e+00 0.000000000000000e+00 0.000000000000000e+00
0.000000000000000e+00 0.000000000000000e+00 0.000000000000000e+00
0.000000000000000e+00 0.000000000000000e+00 0.000000000000000e+00
0.000000000000000e+00 0.000000000000000e+00 0.000000000000000e+00
0.000000000000000e+00 0.000000000000000e+00 0.000000000000000e+00
0.000000000000000e+00 0.000000000000000e+00 0.000000000000000e+00
0.000000000000000e+00 0.000000000000000e+00 0.000000000000000e+00
0.000000000000000e+00 0.000000000000000e+00 0.000000000000000e+00
0.000000000000000e+00 0.000000000000000e+00 0.000000000000000e+00
0.000000000000000e+00 0.000000000000000e+00 0.000000000000000e+00
0.000000000000000e+00 0.000000000000000e+00 0.000000000000000e+00
0.000000000000000e+00 0.000000000000000e+00 0.000000000000000e+00
0.000000000000000e+00 0.000000000000000e+00 0.000000000000000e+00
0.000000000000000e+00 0.000000000000000e+00 0.000000000000000e+00
0.000000000000000e+00 0.000000000000000e+00 0.000000000000000e+00
0.000000000000000e+00 0.000000000000000e+00 0.000000000000000e+00
0.000000000000000e+00 0.000000000000000e+00 0.000000000000000e+00
0.000000000000000e+00 0.000000000000000e+00 0.000000000000000e+00
0.000000000000000e+00 0.000000000000000e+00 0.000000000000000e+00
0.000000000000000e+00 0.000000000000000e+00 0.000000000000000e+00
0.000000000000000e+00 0.000000000000000e+00 0.000000000000000e+00
0.000000000000000e+00 0.000000000000000e+00 0.000000000000000e+00
0.000000000000000e+00 0.000000000000000e+00 0.000000000000000e+00
0.000000000000000e+00 0.000000000000000e+00 0.000000000000000e+00
0.000000000000000e+00 0.000000000000000e+00 0.000000000000000e+00
0.000000000000000e+00 0.000000000000000e+00 0.000000000000000e+00
0.000000000000000e+00 0.000000000000000e+00 0.000000000000000e+00
0.000000000000000e+00 0.000000000000000e+00 0.000000000000000e+00
0.000000000000000e+00 0.000000000000000e+00 0.000000000000000e+00
0.000000000000000e+00 0.000000000000000e+00 0.000000000000000e+00
0.000000000000000e+00 0.000000000000000e+00 0.000000000000000e+00
0.000000000000000e+00 0.000000000000000e+00 0.000000000000000e+00
0.000000000000000e+00 0.000000000000000e+00 0.000000000000000e+00
0.000000000000000e+00 0.000000000000000e+00 0.000000000000000e+00
0.000000000000000e+00 0.000000000000000e+00 0.000000000000000e+00
0.000000000000000e+00 0.000000000000000e+00 0.000000000000000e+00
0.000000000000000e+00 0.000000000000000e+00 0.000000000000000e+00
0.000000000000000e+00 0.000000000000000e+00 0.000000000000000e+00
0.000000000000000e+00 0.000000000000000e+00 0.000000000000000e+00
0.000000000000000e+00 0.000000000000000e+00 0.000000000000000e+00
0.000000000000000e+00 0.000000000000000e+00 0.000000000000000e+00
0.000000000000000e+00 0.000000000000000e+00 0.000000000000000e+00
0.000000000000000e+00 0.000000000000000e+00 0.000000000000000e+00
0.000000000000000e+00 0.000000000000000e+00 0.000000000000000e+00
0.000000000000000e+00 0.000000000000000e+00 0.000000000000000e+00
0.000000000000000e+00 0.000000000000000e+00 0.000000000000000e+00
0.000000000000000e+00 0.000000000000000e+00 0.000000000000000e+00
0.000000000000000e+00 0.000000000000000e+00 0.000000000000000e+00
0.000000000000000e+00 0.000000000000000e+00 0.000000000000000e+00
0.000000000000000e+00 0.000000000000000e+00 0.000000000000000e+00
0.000000000000000e+00 0.000000000000000e+00 0.000000000000000e+00
0.000000000000000e+00 0.000000000000000e+00 0.000000000000000e+00
0.000000000000000e+00 0.000000000000000e+00 0.000000000000000e+00
0.000000000000000e+00 0.000000000000000e+00 0.000000000000000e+00
0.000000000000000e+00 0.000000000000000e+00 0.000000000000000e+00
0.000000000000000e+00 0.000000000000000e+00 0.000000000000000e+00
0.000000000000000e+00 0.000000000000000e+00 0.000000000000000e+00
0.000000000000000e+00 0.000000000000000e+00 0.000000000000000e+00
0.000000000000000e+00 0.000000000000000e+00 0.000000000000000e+00
0.000000000000000e+00 0.000000000000000e+00 0.000000000000000e+00
0.000000000000000e+00 0.000000000000000e+00 0.000000000000000e+00
0.000000000000000e+00 0.000000000000000e+00 0.000000000000000e+00
0.000000000000000e+00 0.000000000000000e+00 0.000000000000000e+00
0.000000000000000e+00 0.000000000000000e+00 0.000000000000000e+00
0.000000000000000e+00 0.000000000000000e+00 0.000000000000000e+00
0.000000000000000e+00 0.000000000000000e+00 0.000000000000000e+00
0.000000000000000e+00 0.000000000000000e+00 0.000000000000000e+00
0.000000000000000e+00 0.000000000000000e+00 0.000000000000000e+00
0.000000000000000e+00 0.000000000000000e+00 0.000000000000000e+00
0.000000000000000e+00 0.000000000000000e+00 0.000000000000000e+00
0.000000000000000e+00 0.000000000000000e+00 0.000000000000000e+00
0.000000000000000e+00 0.000000000000000e+00 0.000000000000000e+00
0.000000000000000e+00 0.000000000000000e+00 0.000000000000000e+00
0.000000000000000e+00 0.000000000000000e+00 0.000000000000000e+00
0.000000000000000e+00 0.000000000000000e+00 0.000000000000000e+00
0.000000000000000e+00 0.000000000000000e+00 0.000000000000000e+00
0.000000000000000e+00 0.000000000000000e+00 0.000000000000000e+00
0.000000000000000e+00 0.000000000000000e+00 0.000000000000000e+00
0.000000000000000e+00 0.000000000000000e+00 0.000000000000000e+00
0.000000000000000e+00 0.000000000000000e+00 0.000000000000000e+00
0.000000000000000e+00 0.000000000000000e+00 0.000000000000000e+00
0.000000000000000e+00 0.000000000000000e+00 0.000000000000000e+00
0.000000000000000e+00 0.000000000000000e+00 0.000000000000000e+00
0.000000000000000e+00 0.000000000000000e+00 0.000000000000000e+00
0.000000000000000e+00 0.000000000000000e+00 0.000000000000000e+00
0.000000000000000e+00 0.000000000000000e+00 0.000000000000000e+00
0.000000000000000e+00 0.000000000000000e+00 0.000000000000000e+00
0.000000000000000e+00 0.000000000000000e+00 0.000000000000000e+00
0.000000000000000e+00 0.000000000000000e+00 0.000000000000000e+00
0.000000000000000e+00 0.000000000000000e+00 0.000000000000000e+00
0.000000000000000e+00 0.000000000000000e+00 0.000000000000000e+00
0.000000000000000e+00 0.000000000000000e+00 0.000000000000000e+00
0.000000000000000e+00 0.000000000000000e+00 0.000000000000000e+00
0.000000000000000e+00 0.000000000000000e+00 0.000000000000000e+00
0.000000000000000e+00 0.000000000000000e+00 0.000000000000000e+00
0.000000000000000e+00 0.000000000000000e+00 0.000000000000000e+00
0.000000000000000e+00 0.000000000000000e+00 0.000000000000000e+00
0.000000000000000e+00 0.000000000000000e+00 0.000000000000000e+00
0.000000000000000e+00 0.000000000000000e+00 0.000000000000000e+00
0.000000000000000e+00 0.000000000000000e+00 0.000000000000000e+00
0.000000000000000e+00 0.000000000000000e+00 0.000000000000000e+00
0.000000000000000e+00 0.000000000000000e+00 0.000000000000000e+00
0.000000000000000e+00 0.000000000000000e+00 0.000000000000000e+00
0.000000000000000e+00 0.000000000000000e+00 0.000000000000000e+00
0.000000000000000e+00 0.000000000000000e+00 0.000000000000000e+00
0.000000000000000e+00 0.000000000000000e+00 0.000000000000000e+00
0.000000000000000e+00 0.000000000000000e+00 0.000000000000000e+00
0.000000000000000e+00 0.000000000000000e+00 0.000000000000000e+00
0.000000000000000e+00 0.000000000000000e+00 0.000000000000000e+00
0.000000000000000e+00 0.000000000000000e+00 0.000000000000000e+00
0.000000000000000e+00 0.000000000000000e+00 0.000000000000000e+00
0.000000000000000e+00 0.000000000000000e+00 0.000000000000000e+00
0.000000000000000e+00 0.000000000000000e+00 0.000000000000000e+00
0.000000000000000e+00 0.000000000000000e+00 0.000000000000000e+00
0.000000000000000e+00 0.000000000000000e+00 0.000000000000000e+00
0.000000000000000e+00 0.000000000000000e+00 0.000000000000000e+00
0.000000000000000e+00 0.000000000000000e+00 0.000000000000000e+00
0.000000000000000e+00 0.000000000000000e+00 0.000000000000000e+00
0.000000000000000e+00 0.000000000000000e+00 0.000000000000000e+00
0.000000000000000e+00 0.000000000000000e+00 0.000000000000000e+00
0.000000000000000e+00 0.000000000000000e+00 0.000000000000000e+00
0.000000000000000e+00 0.000000000000000e+00 0.000000000000000e+00
0.000000000000000e+00 0.000000000000000e+00 0.000000000000000e+00
0.000000000000000e+00 0.000000000000000e+00 0.000000000000000e+00
0.000000000000000e+00 0.000000000000000e+00 0.000000000000000e+00
0.000000000000000e+00 0.000000000000000e+00 0.000000000000000e+00
0.000000000000000e+00 0.000000000000000e+00 0.000000000000000e+00
0.000000000000000e+00 0.000000000000000e+00 0.000000000000000e+00
0.000000000000000e+00 0.000000000000000e+00 0.000000000000000e+00
0.000000000000000e+00 0.000000000000000e+00 0.000000000000000e+00
0.000000000000000e+00 0.000000000000000e+00 0.000000000000000e+00
0.000000000000000e+00 0.000000000000000e+00 0.000000000000000e+00
0.000000000000000e+00 0.000000000000000e+00 0.000000000000000e+00
0.000000000000000e+00 0.000000000000000e+00 0.000000000000000e+00
0.000000000000000e+00 0.000000000000000e+00 0.000000000000000e+00
0.000000000000000e+00 0.000000000000000e+00 0.000000000000000e+00
0.000000000000000e+00 0.000000000000000e+00 0.000000000000000e+00
0.000000000000000e+00 0.000000000000000e+00 0.000000000000000e+00
0.000000000000000e+00 0.000000000000000e+00 0.000000000000000e+00
0.000000000000000e+00 0.000000000000000e+00 0.000000000000000e+00
0.000000000000000e+00 0.000000000000000e+00 0.000000000000000e+00
0.000000000000000e+00 0.000000000000000e+00 0.000000000000000e+00
0.000000000000000e+00 0.000000000000000e+00 0.000000000000000e+00
0.000000000000000e+00 0.000000000000000e+00 0.000000000000000e+00
0.000000000000000e+00 0.000000000000000e+00 0.000000000000000e+00
0.000000000000000e+00 0.000000000000000e+00 0.000000000000000e+00
0.000000000000000e+00 0.000000000000000e+00 0.000000000000000e+00
0.000000000000000e+00 0.000000000000000e+00 0.000000000000000e+00
0.000000000000000e+00 0.000000000000000e+00 0.000000000000000e+00
0.000000000000000e+00 0.000000000000000e+00 0.000000000000000e+00
0.000000000000000e+00 0.000000000000000e+00 0.000000000000000e+00
0.000000000000000e+00 0.000000000000000e+00 0.000000000000000e+00
0.000000000000000e+00 0.000000000000000e+00 0.000000000000000e+00
0.000000000000000e+00 0.000000000000000e+00 0.000000000000000e+00
0.000000000000000e+00 0.000000000000000e+00 0.000000000000000e+00
0.000000000000000e+00 0.000000000000000e+00 0.000000000000000e+00
0.000000000000000e+00 0.000000000000000e+00 0.000000000000000e+00
0.000000000000000e+00 0.000000000000000e+00 0.000000000000000e+00
0.000000000000000e+00 0.000000000000000e+00 0.000000000000000e+00
0.000000000000000e+00 0.000000000000000e+00 0.000000000000000e+00
0.000000000000000e+00 0.000000000000000e+00 0.000000000000000e+00
0.000000000000000e+00 0.000000000000000e+00 0.000000000000000e+00
0.000000000000000e+00 0.000000000000000e+00 0.000000000000000e+00
0.000000000000000e+00 0.000000000000000e+00 0.000000000000000e+00
0.000000000000000e+00 0.000000000000000e+00 0.000000000000000e+00
0.000000000000000e+00 0.000000000000000e+00 0.000000000000000e+00
0.000000000000000e+00 0.000000000000000e+00 0.000000000000000e+00
0.000000000000000e+00 0.000000000000000e+00 0.000000000000000e+00
0.000000000000000e+00 0.000000000000000e+00 0.000000000000000e+00
0.000000000000000e+00 0.000000000000000e+00 0.000000000000000e+00
0.000000000000000e+00 0.000000000000000e+00 0.000000000000000e+00
0.000000000000000e+00 0.000000000000000e+00 0.000000000000000e+00
0.000000000000000e+00 0.000000000000000e+00 0.000000000000000e+00
0.000000000000000e+00 0.000000000000000e+00 0.000000000000000e+00
0.000000000000000e+00 0.000000000000000e+00 0.000000000000000e+00
0.000000000000000e+00 0.000000000000000e+00 0.000000000000000e+00
0.000000000000000e+00 0.000000000000000e+00 0.000000000000000e+00
0.000000000000000e+00 0.000000000000000e+00 0.000000000000000e+00
0.000000000000000e+00 0.000000000000000e+00 0.000000000000000e+00
0.000000000000000e+00 0.000000000000000e+00 0.000000000000000e+00
0.000000000000000e+00 0.000000000000000e+00 0.000000000000000e+00