# vtk DataFile Version 3.0
# Dislocation lines converted from MoDELib file
ASCII
DATASET UNSTRUCTURED_GRID
POINTS 6202 double
-1.429999999999877e+00  3.863858941524650e+02 -2.918975276816622e+03
-1.429999999999897e+00 -3.863858941524674e+02 -2.918975276816622e+03
-1.429999999999897e+00  0.000000000000000e+00 -2.918975276816622e+03
-1.430000000000221e+00  0.000000000000000e+00  2.918975276816619e+03
-1.430000000000221e+00 -3.863858941524674e+02  2.918975276816619e+03
-1.430000000000201e+00  3.863858941524653e+02  2.918975276816619e+03
-1.147444031603952e+03  9.358436052973504e-03 -2.918975276816622e+03
-1.148420870174218e+03 -1.014947611719904e+00 -2.918975276816622e+03
-1.149410415919510e+03 -1.999020469697912e+00 -2.918975276816622e+03
-1.148048361076573e+03 -2.990792030472538e+00 -2.918975276816622e+03
-1.147438784935229e+03 -3.996943044013245e+00 -2.918975276816622e+03
-1.148345362945735e+03 -4.980496758053230e+00 -2.918975276816622e+03
-1.148927788079792e+03 -5.990937780323963e+00 -2.918975276816622e+03
-1.147812347479931e+03 -6.983415971429111e+00 -2.918975276816622e+03
-1.147725539524738e+03 -7.987286665296267e+00 -2.918975276816622e+03
-1.148559933831421e+03 -8.988811978111409e+00 -2.918975276816622e+03
-1.148798642922876e+03 -9.979259382200599e+00 -2.918975276816622e+03
-1.147935234831314e+03 -1.098361545527016e+01 -2.918975276816622e+03
-1.147582959218774e+03 -1.197952286906940e+01 -2.918975276816622e+03
-1.148136014602913e+03 -1.298247127098512e+01 -2.918975276816622e+03
-1.148955373296916e+03 -1.398178847457767e+01 -2.918975276816622e+03
-1.148319699903036e+03 -1.496911856170685e+01 -2.918975276816622e+03
-1.147831952680126e+03 -1.597571361184082e+01 -2.918975276816622e+03
-1.148014106425096e+03 -1.697242110407995e+01 -2.918975276816622e+03
-1.148274354478433e+03 -1.797197086392291e+01 -2.918975276816622e+03
-1.148214640011873e+03 -1.896982849874503e+01 -2.918975276816622e+03
-1.148179491501288e+03 -1.996830178271120e+01 -2.918975276816622e+03
-1.148182207479474e+03 -2.096671260829928e+01 -2.918975276816622e+03
-1.148186775528336e+03 -2.196514688865473e+01 -2.918975276816622e+03
-1.148195281246150e+03 -2.296352255113611e+01 -2.918975276816622e+03
-1.148186425058884e+03 -2.396188692642463e+01 -2.918975276816622e+03
-1.148174963821148e+03 -2.496033509200347e+01 -2.918975276816622e+03
-1.148181381534001e+03 -2.595878995589030e+01 -2.918975276816622e+03
-1.148188570379760e+03 -2.695718470645880e+01 -2.918975276816622e+03
-1.148185799436672e+03 -2.795558095287504e+01 -2.918975276816622e+03
-1.148183668399314e+03 -2.895399961157172e+01 -2.918975276816622e+03
-1.148184758289387e+03 -2.995241529225694e+01 -2.918975276816622e+03
-1.148185474742613e+03 -3.095082549605684e+01 -2.918975276816622e+03
-1.148184828968571e+03 -3.194923583602331e+01 -2.918975276816622e+03
-1.148183892516431e+03 -3.294765158243384e+01 -2.918975276816622e+03
-1.148184366908387e+03 -3.394606971102559e+01 -2.918975276816622e+03
-1.148185867161435e+03 -3.494448168609292e+01 -2.918975276816622e+03
-1.148185873517290e+03 -3.594288693152657e+01 -2.918975276816622e+03
-1.148184441956973e+03 -3.694129900707166e+01 -2.918975276816622e+03
-1.148183993328077e+03 -3.793971725190638e+01 -2.918975276816622e+03
-1.148184900384844e+03 -3.893813304804323e+01 -2.918975276816622e+03
-1.148185547606338e+03 -3.993654349767405e+01 -2.918975276816622e+03
-1.148184903980423e+03 -4.093495400704461e+01 -2.918975276816622e+03
-1.148184044176661e+03 -4.193336998507434e+01 -2.918975276816622e+03
-1.148184258603430e+03 -4.293178817099194e+01 -2.918975276816622e+03
-1.148185279616500e+03 -4.393020296550468e+01 -2.918975276816622e+03
-1.148186072228626e+03 -4.492861225381869e+01 -2.918975276816622e+03
-1.148186090821124e+03 -4.592701974638189e+01 -2.918975276816622e+03
-1.148185326327943e+03 -4.692542903409601e+01 -2.918975276816622e+03
-1.148184327766522e+03 -4.792384388728430e+01 -2.918975276816622e+03
-1.148184151473653e+03 -4.892226213078499e+01 -2.918975276816622e+03
-1.148185052851301e+03 -4.992067805663164e+01 -2.918975276816622e+03
-1.148185716536476e+03 -5.091908851545136e+01 -2.918975276816622e+03
-1.148185088531876e+03 -5.191749905108189e+01 -2.918975276816622e+03
-1.148184219639533e+03 -5.291591494219760e+01 -2.918975276816622e+03
-1.148184704968867e+03 -5.391433318296935e+01 -2.918975276816622e+03
-1.148186161576110e+03 -5.491274523762193e+01 -2.918975276816622e+03
-1.148186174551663e+03 -5.591115053808662e+01 -2.918975276816622e+03
-1.148184745420265e+03 -5.690956266343533e+01 -2.918975276816622e+03
-1.148184299572879e+03 -5.790798095710287e+01 -2.918975276816622e+03
-1.148185211381578e+03 -5.890639678626754e+01 -2.918975276816622e+03
-1.148185860774343e+03 -5.990480725291771e+01 -2.918975276816622e+03
-1.148185216557228e+03 -6.090321778616913e+01 -2.918975276816622e+03
-1.148184357766385e+03 -6.190163379421362e+01 -2.918975276816622e+03
-1.148184574738669e+03 -6.290005200092906e+01 -2.918975276816622e+03
-1.148185597198697e+03 -6.389846680825411e+01 -2.918975276816622e+03
-1.148186390044022e+03 -6.489687610955700e+01 -2.918975276816622e+03
-1.148186408878371e+03 -6.589528361813520e+01 -2.918975276816622e+03
-1.148185645276800e+03 -6.689369292284850e+01 -2.918975276816622e+03
-1.148184648096526e+03 -6.789210779080712e+01 -2.918975276816622e+03
-1.148184473307786e+03 -6.889052604431963e+01 -2.918975276816622e+03
-1.148185375367765e+03 -6.988894197499891e+01 -2.918975276816622e+03
-1.148186037845934e+03 -7.088735244174241e+01 -2.918975276816622e+03
-1.148185409327795e+03 -7.188576299785021e+01 -2.918975276816622e+03
-1.148184543577965e+03 -7.288417890653771e+01 -2.918975276816622e+03
-1.148185031553131e+03 -7.388259714546166e+01 -2.918975276816622e+03
-1.148186486382812e+03 -7.488100919867257e+01 -2.918975276816622e+03
-1.148186497681619e+03 -7.587941451680233e+01 -2.918975276816622e+03
-1.148185070857970e+03 -7.687782666133913e+01 -2.918975276816622e+03
-1.148184627803468e+03 -7.787624495819794e+01 -2.918975276816622e+03
-1.148185539272136e+03 -7.887466078585328e+01 -2.918975276816622e+03
-1.148186187201776e+03 -7.987307126238164e+01 -2.918975276816622e+03
-1.148185543748649e+03 -8.087148181200671e+01 -2.918975276816622e+03
-1.148184687252878e+03 -8.186989782930870e+01 -2.918975276816622e+03
-1.148184905047998e+03 -8.286831603770678e+01 -2.918975276816622e+03
-1.148185926633503e+03 -8.386673085098586e+01 -2.918975276816622e+03
-1.148186719799897e+03 -8.486514016532867e+01 -2.918975276816622e+03
-1.148186740773229e+03 -8.586354768247831e+01 -2.918975276816622e+03
-1.148185978340774e+03 -8.686195698792810e+01 -2.918975276816622e+03
-1.148184980677877e+03 -8.786037186035254e+01 -2.918975276816622e+03
-1.148184806211462e+03 -8.885879012372442e+01 -2.918975276816622e+03
-1.148185708665336e+03 -8.985720605985117e+01 -2.918975276816622e+03
-1.148186370643773e+03 -9.085561653774776e+01 -2.918975276816622e+03
-1.148185744183280e+03 -9.185402710955287e+01 -2.918975276816622e+03
-1.148184880128231e+03 -9.285244301838571e+01 -2.918975276816622e+03
-1.148185365838171e+03 -9.385086126450707e+01 -2.918975276816622e+03
-1.148186823091201e+03 -9.484927334042995e+01 -2.918975276816622e+03
-1.148186841343996e+03 -9.584767864987025e+01 -2.918975276816622e+03
-1.148185412295345e+03 -9.684609076579400e+01 -2.918975276816622e+03
-1.148184959597452e+03 -9.784450907648380e+01 -2.918975276816622e+03
-1.148185869894964e+03 -9.884292495736788e+01 -2.918975276816622e+03
-1.148186528503717e+03 -9.984133546170229e+01 -2.918975276816622e+03
-1.148185892046553e+03 -1.008397459843788e+02 -2.918975276816622e+03
-1.148185030321300e+03 -1.018381619806608e+02 -2.918975276816622e+03
-1.148185244093404e+03 -1.028365802110194e+02 -2.918975276816622e+03
-1.148186268800081e+03 -1.038349950401919e+02 -2.918975276816622e+03
-1.148187063304553e+03 -1.048334043550094e+02 -2.918975276816622e+03
-1.148187083899677e+03 -1.058318118825299e+02 -2.918975276816622e+03
-1.148186323263280e+03 -1.068302211979157e+02 -2.918975276816622e+03
-1.148185326562777e+03 -1.078286360720540e+02 -2.918975276816622e+03
-1.148185150701481e+03 -1.088270543431510e+02 -2.918975276816622e+03
-1.148186054225423e+03 -1.098254702971444e+02 -2.918975276816622e+03
-1.148186720316630e+03 -1.108238807780434e+02 -2.918975276816622e+03
-1.148186093891270e+03 -1.118222913398867e+02 -2.918975276816622e+03
-1.148185227710600e+03 -1.128207072585744e+02 -2.918975276816622e+03
-1.148185715424305e+03 -1.138191255164188e+02 -2.918975276816622e+03
-1.148187172098911e+03 -1.148175375887632e+02 -2.918975276816622e+03
-1.148187186382723e+03 -1.158159429213131e+02 -2.918975276816622e+03
-1.148185762042407e+03 -1.168143550756318e+02 -2.918975276816622e+03
-1.148185319194722e+03 -1.178127733790212e+02 -2.918975276816622e+03
-1.148186229291613e+03 -1.188111892228807e+02 -2.918975276816622e+03
-1.148186879388621e+03 -1.198095997264354e+02 -2.918975276816622e+03
-1.148186241116050e+03 -1.208080102874429e+02 -2.918975276816622e+03
-1.148185385206065e+03 -1.218064263027400e+02 -2.918975276816622e+03
-1.148185600794255e+03 -1.228048445281717e+02 -2.918975276816622e+03
-1.148186624839451e+03 -1.238032593661764e+02 -2.918975276816622e+03
-1.148187421793973e+03 -1.248016686872419e+02 -2.918975276816622e+03
-1.148187442612538e+03 -1.258000762102243e+02 -2.918975276816622e+03
-1.148186679783231e+03 -1.267984855380612e+02 -2.918975276816622e+03
-1.148185684841841e+03 -1.277969004336422e+02 -2.918975276816622e+03
-1.148185512939496e+03 -1.287953187078127e+02 -2.918975276816622e+03
-1.148186416475564e+03 -1.297937346546071e+02 -2.918975276816622e+03
-1.148187080754494e+03 -1.307921451441556e+02 -2.918975276816622e+03
-1.148186455719356e+03 -1.317905557213529e+02 -2.918975276816622e+03
-1.148185591413907e+03 -1.327889716447912e+02 -2.918975276816622e+03
-1.148186079275848e+03 -1.337873899078211e+02 -2.918975276816622e+03
-1.148187537050537e+03 -1.347858019880524e+02 -2.918975276816622e+03
-1.148187552498389e+03 -1.357842073232282e+02 -2.918975276816622e+03
[...]
POINT_DATA 6202
VECTORS PK_force double
0.000000000000000e+00 0.000000000000000e+00 0.000000000000000e+00
0.000000000000000e+00 0.000000000000000e+00 0.000000000000000e+00
0.000000000000000e+00 0.000000000000000e+00 0.000000000000000e+00
0.000000000000000e+00 0.000000000000000e+00 0.000000000000000e+00
0.000000000000000e+00 0.000000000000000e+00 0.000000000000000e+00
0.000000000000000e+00 0.000000000000000e+00 0.000000000000000e+00
0.000000000000000e+00 0.000000000000000e+00 0.000000000000000e+00
0.000000000000000e+00 0.000000000000000e+00 0.000000000000000e+00
0.000000000000000e+00 0.000000000000000e+00 0.000000000000000e+00
0.000000000000000e+00 0.000000000000000e+00 0.000000000000000e+00
0.000000000000000e+00 0.000000000000000e+00 0.000000000000000e+00
0.000000000000000e+00 0.000000000000000e+00 0.000000000000000e+00
0.000000000000000e+00 0.000000000000000e+00 0.000000000000000e+00
0.000000000000000e+00 0.000000000000000e+00 0.000000000000000e+00
0.000000000000000e+00 0.000000000000000e+00 0.000000000000000e+00
0.000000000000000e+00 0.000000000000000e+00 0.000000000000000e+00
0.000000000000000e+00 0.000000000000000e+00 0.000000000000000e+00
0.000000000000000e+00 0.000000000000000e+00 0.000000000000000e+00
0.000000000000000e+00 0.000000000000000e+00 0.000000000000000e+00
0.000000000000000e+00 0.000000000000000e+00 0.000000000000000e+00
0.000000000000000e+00 0.000000000000000e+00 0.000000000000000e+00
0.000000000000000e+00 0.000000000000000e+00 0.000000000000000e+00
0.000000000000000e+00 0.000000000000000e+00 0.000000000000000e+00
0.000000000000000e+00 0.000000000000000e+00 0.000000000000000e+00
0.000000000000000e+00 0.000000000000000e+00 0.000000000000000e+00
0.000000000000000e+00 0.000000000000000e+00 0.000000000000000e+00
0.000000000000000e+00 0.000000000000000e+00 0.000000000000000e+00
0.000000000000000e+00 0.000000000000000e+00 0.000000000000000e+00
0.000000000000000e+00 0.000000000000000e+00 0.000000000000000e+00
0.000000000000000e+00 0.000000000000000e+00 0.000000000000000e+00
0.000000000000000e+00 0.000000000000000e+00 0.000000000000000e+00
0.000000000000000e+00 0.000000000000000e+00 0.000000000000000e+00
0.000000000000000e+00 0.000000000000000e+00 0.000000000000000e+00
0.000000000000000e+00 0.000000000000000e+00 0.000000000000000e+00
0.000000000000000e+00 0.000000000000000e+00 0.000000000000000e+00
0.000000000000000e+00 0.000000000000000e+00 0.000000000000000e+00
0.000000000000000e+00 0.000000000000000e+00 0.000000000000000e+00
0.000000000000000e+00 0.000000000000000e+00 0.000000000000000e+00
0.000000000000000e+00 0.000000000000000e+00 0.000000000000000e+00
0.000000000000000e+00 0.000000000000000e+00 0.000000000000000e+00
0.000000000000000e+00 0.000000000000000e+00 0.000000000000000e+00
0.000000000000000e+00 0.000000000000000e+00 0.000000000000000e+00
0.000000000000000e+00 0.000000000000000e+00 0.000000000000000e+00
0.000000000000000e+00 0.000000000000000e+00 0.000000000000000e+00
0.000000000000000e+00 0.000000000000000e+00 0.000000000000000e+00
0.000000000000000e+00 0.000000000000000e+00 0.000000000000000e+00
0.000000000000000e+00 0.000000000000000e+00 0.000000000000000e+00
0.000000000000000e+00 0.000000000000000e+00 0.000000000000000e+00
0.000000000000000e+00 0.000000000000000e+00 0.000000000000000e+00
0.000000000000000e+00 0.000000000000000e+00 0.000000000000000e+00
0.000000000000000e+00 0.000000000000000e+00 0.000000000000000e+00
0.000000000000000e+00 0.000000000000000e+00 0.000000000000000e+00
0.000000000000000e+00 0.000000000000000e+00 0.000000000000000e+00
0.000000000000000e+00 0.000000000000000e+00 0.000000000000000e+00
0.000000000000000e+00 0.000000000000000e+00 0.000000000000000e+00
0.000000000000000e+00 0.000000000000000e+00 0.000000000000000e+00
0.000000000000000e+00 0.000000000000000e+00 0.000000000000000e+00
0.000000000000000e+00 0.000000000000000e+00 0.000000000000000e+00
0.000000000000000e+00 0.000000000000000e+00 0.000000000000000e+00
0.000000000000000e+00 0.000000000000000e+00 0.000000000000000e+00
0.000000000000000e+00 0.000000000000000e+00 0.000000000000000e+00
0.000000000000000e+00 0.000000000000000e+00 0.000000000000000e+00
0.000000000000000e+00 0.000000000000000e+00 0.000000000000000e+00
0.000000000000000e+00 0.000000000000000e+00 0.000000000000000e+00
0.000000000000000e+00 0.000000000000000e+00 0.000000000000000e+00
0.000000000000000e+00 0.000000000000000e+00 0.000000000000000e+00
0.000000000000000e+00 0.000000000000000e+00 0.000000000000000e+00
0.000000000000000e+00 0.000000000000000e+00 0.000000000000000e+00
0.000000000000000e+00 0.000000000000000e+00 0.000000000000000e+00
0.000000000000000e+00 0.000000000000000e+00 0.000000000000000e+00
0.000000000000000e+00 0.000000000000000e+00 0.000000000000000e+00
0.000000000000000e+00 0.000000000000000e+00 0.000000000000000e+00
0.000000000000000e+00 0.000000000000000e+00 0.000000000000000e+00
0.000000000000000e+00 0.000000000000000e+00 0.000000000000000e+00
0.000000000000000e+00 0.000000000000000e+00 0.000000000000000e+00
0.000000000000000e+00 0.000000000000000e+00 0.000000000000000e+00
0.000000000000000e+00 0.000000000000000e+00 0.000000000000000e+00
0.000000000000000e+00 0.000000000000000e+00 0.000000000000000e+00
0.000000000000000e+00 0.000000000000000e+00 0.000000000000000e+00
0.000000000000000e+00 0.000000000000000e+00 0.000000000000000e+00
0.000000000000000e+00 0.000000000000000e+00 0.000000000000000e+00
0.000000000000000e+00 0.000000000000000e+00 0.000000000000000e+00
0.000000000000000e+00 0.000000000000000e+00 0.000000000000000e+00
0.000000000000000e+00 0.000000000000000e+00 0.000000000000000e+00
0.000000000000000e+00 0.000000000000000e+00 0.000000000000000e+00
0.000000000000000e+00 0.000000000000000e+00 0.000000000000000e+00
0.000000000000000e+00 0.000000000000000e+00 0.000000000000000e+00
0.000000000000000e+00 0.000000000000000e+00 0.000000000000000e+00
0.000000000000000e+00 0.000000000000000e+00 0.000000000000000e+00
0.000000000000000e+00 0.000000000000000e+00 0.000000000000000e+00
0.000000000000000e+00 0.000000000000000e+00 0.000000000000000e+00
0.000000000000000e+00 0.000000000000000e+00 0.000000000000000e+00
0.000000000000000e+00 0.000000000000000e+00 0.000000000000000e+00
0.000000000000000e+00 0.000000000000000e+00 0.000000000000000e+00
0.000000000000000e+00 0.000000000000000e+00 0.000000000000000e+00
0.000000000000000e+00 0.000000000000000e+00 0.000000000000000e+00
0.000000000000000e+00 0.000000000000000e+00 0.000000000000000e+00
0.000000000000000e+00 0.000000000000000e+00 0.000000000000000e+00
0.000000000000000e+00 0.000000000000000e+00 0.000000000000000e+00
0.000000000000000e+00 0.000000000000000e+00 0.000000000000000e+00
0.000000000000000e+00 0.000000000000000e+00 0.000000000000000e+00
0.000000000000000e+00 0.000000000000000e+00 0.000000000000000e+00
0.000000000000000e+00 0.000000000000000e+00 0.000000000000000e+00
0.000000000000000e+00 0.000000000000000e+00 0.000000000000000e+00
0.000000000000000e+00 0.000000000000000e+00 0.000000000000000e+00
0.000000000000000e+00 0.000000000000000e+00 0.000000000000000e+00
0.000000000000000e+00 0.000000000000000e+00 0.000000000000000e+00
0.000000000000000e+00 0.000000000000000e+00 0.000000000000000e+00
0.000000000000000e+00 0.000000000000000e+00 0.000000000000000e+00
0.000000000000000e+00 0.000000000000000e+00 0.000000000000000e+00
0.000000000000000e+00 0.000000000000000e+00 0.000000000000000e+00
0.000000000000000e+00 0.000000000000000e+00 0.000000000000000e+00
0.000000000000000e+00 0.000000000000000e+00 0.000000000000000e+00
0.000000000000000e+00 0.000000000000000e+00 0.000000000000000e+00
0.000000000000000e+00 0.000000000000000e+00 0.000000000000000e+00
0.000000000000000e+00 0.000000000000000e+00 0.000000000000000e+00
0.000000000000000e+00 0.000000000000000e+00 0.000000000000000e+00
0.000000000000000e+00 0.000000000000000e+00 0.000000000000000e+00
0.000000000000000e+00 0.000000000000000e+00 0.000000000000000e+00
0.000000000000000e+00 0.000000000000000e+00 0.000000000000000e+00
0.000000000000000e+00 0.000000000000000e+00 0.000000000000000e+00
0.000000000000000e+00 0.000000000000000e+00 0.000000000000000e+00
0.000000000000000e+00 0.000000000000000e+00 0.000000000000000e+00
0.000000000000000e+00 0.000000000000000e+00 0.000000000000000e+00
0.000000000000000e+00 0.000000000000000e+00 0.000000000000000e+00
0.000000000000000e+00 0.000000000000000e+00 0.000000000000000e+00
0.000000000000000e+00 0.000000000000000e+00 0.000000000000000e+00
0.000000000000000e+00 0.000000000000000e+00 0.000000000000000e+00
0.000000000000000e+00 0.000000000000000e+00 0.000000000000000e+00
0.000000000000000e+00 0.000000000000000e+00 0.000000000000000e+00
0.000000000000000e+00 0.000000000000000e+00 0.000000000000000e+00
0.000000000000000e+00 0.000000000000000e+00 0.000000000000000e+00
0.000000000000000e+00 0.000000000000000e+00 0.000000000000000e+00
0.000000000000000e+00 0.000000000000000e+00 0.000000000000000e+00
0.000000000000000e+00 0.000000000000000e+00 0.000000000000000e+00
0.000000000000000e+00 0.000000000000000e+00 0.000000000000000e+00
0.000000000000000e+00 0.000000000000000e+00 0.000000000000000e+00
0.000000000000000e+00 0.000000000000000e+00 0.000000000000000e+00
0.000000000000000e+00 0.000000000000000e+00 0.000000000000000e+00
0.000000000000000e+00 0.000000000000000e+00 0.000000000000000e+00
0.000000000000000e+00 0.000000000000000e+00 0.000000000000000e+00
0.000000000000000e+00 0.000000000000000e+00 0.000000000000000e+00
0.000000000000000e+00 0.000000000000000e+00 0.000000000000000e+00
0.000000000000000e+00 0.000000000000000e+00 0.000000000000000e+00
0.000000000000000e+00 0.000000000000000e+00 0.000000000000000e+00
0.000000000000000e+00 0.000000000000000e+00 0.000000000000000e+00
0.000000000000000e+00 0.000000000000000e+00 0.000000000000000e+00
0.000000000000000e+00 0.000000000000000e+00 0.000000000000000e+00
0.000000000000000e+00 0.000000000000000e+00 0.000000000000000e+00
0.000000000000000e+00 0.000000000000000e+00 0.000000000000000e+00
0.000000000000000e+00 0.000000000000000e+00 0.000000000000000e+00
0.000000000000000e+00 0.000000000000000e+00 0.000000000000000e+00
0.000000000000000e+00 0.000000000000000e+00 0.000000000000000e+00
0.000000000000000e+00 0.000000000000000e+00 0.000000000000000e+00
0.000000000000000e+00 0.000000000000000e+00 0.000000000000000e+00
0.000000000000000e+00 0.000000000000000e+00 0.000000000000000e+00
0.000000000000000e+00 0.000000000000000e+00 0.000000000000000e+00
0.000000000000000e+00 0.000000000000000e+00 0.000000000000000e+00
0.000000000000000e+00 0.000000000000000e+00 0.000000000000000e+00
0.000000000000000e+00 0.000000000000000e+00 0.000000000000000e+00
0.000000000000000e+00 0.000000000000000e+00 0.000000000000000e+00
0.000000000000000e+00 0.000000000000000e+00 0.000000000000000e+00
0.000000000000000e+00 0.000000000000000e+00 0.000000000000000e+00
0.000000000000000e+00 0.000000000000000e+00 0.000000000000000e+00
0.000000000000000e+00 0.000000000000000e+00 0.000000000000000e+00
0.000000000000000e+00 0.000000000000000e+00 0.000000000000000e+00
0.000000000000000e+00 0.000000000000000e+00 0.000000000000000e+00
0.000000000000000e+00 0.000000000000000e+00 0.000000000000000e+00
0.000000000000000e+00 0.000000000000000e+00 0.000000000000000e+00
0.000000000000000e+00 0.000000000000000e+00 0.000000000000000e+00
0.000000000000000e+00 0.000000000000000e+00 0.000000000000000e+00
0.000000000000000e+00 0.000000000000000e+00 0.000000000000000e+00
0.000000000000000e+00 0.000000000000000e+00 0.000000000000000e+00
0.000000000000000e+00 0.000000000000000e+00 0.000000000000000e+00
0.000000000000000e+00 0.000000000000000e+00 0.000000000000000e+00
0.000000000000000e+00 0.000000000000000e+00 0.000000000000000e+00
0.000000000000000e+00 0.000000000000000e+00 0.000000000000000e+00
0.000000000000000e+00 0.000000000000000e+00 0.000000000000000e+00
0.000000000000000e+00 0.000000000000000e+00 0.000000000000000e+00
0.000000000000000e+00 0.000000000000000e+00 0.000000000000000e+00
0.000000000000000e+00 0.000000000000000e+00 0.000000000000000e+00
0.000000000000000e+00 0.000000000000000e+00 0.000000000000000e+00
0.000000000000000e+00 0.000000000000000e+00 0.000000000000000e+00
0.000000000000000e+00 0.000000000000000e+00 0.000000000000000e+00
0.000000000000000e+00 0.000000000000000e+00 0.000000000000000e+00
0.000000000000000e+00 0.000000000000000e+00 0.000000000000000e+00
0.000000000000000e+00 0.000000000000000e+00 0.000000000000000e+00
0.000000000000000e+00 0.000000000000000e+00 0.000000000000000e+00
0.000000000000000e+00 0.000000000000000e+00 0.000000000000000e+00
0.000000000000000e+00 0.000000000000000e+00 0.000000000000000e+00
0.000000000000000e+00 0.000000000000000e+00 0.000000000000000e+00
0.000000000000000e+00 0.000000000000000e+00 0.000000000000000e+00
0.000000000000000e+00 0.000000000000000e+00 0.000000000000000e+00
0.000000000000000e+00 0.000000000000000e+00 0.000000000000000e+00
0.000000000000000e+00 0.000000000000000e+00 0.000000000000000e+00
0.000000000000000e+00 0.000000000000000e+00 0.000000000000000e+00
0.000000000000000e+00 0.000000000000000e+00 0.000000000000000e+00
0.000000000000000e+00 0.000000000000000e+00 0.000000000000000e+00
0.000000000000000e+00 0.000000000000000e+00 0.000000000000000e+00
0.000000000000000e+00 0.000000000000000e+00 0.000000000000000e+00
0.000000000000000e+00 0.000000000000000e+00 0.000000000000000e+00
0.000000000000000e+00 0.000000000000000e+00 0.000000000000000e+00
0.000000000000000e+00 0.000000000000000e+00 0.000000000000000e+00
0.000000000000000e+00 0.000000000000000e+00 0.000000000000000e+00
0.000000000000000e+00 0.000000000000000e+00 0.000000000000000e+00
0.000000000000000e+00 0.000000000000000e+00 0.000000000000000e+00
0.000000000000000e+00 0.000000000000000e+00 0.000000000000000e+00
0.000000000000000e+00 0.000000000000000e+00 0.000000000000000e+00
0.000000000000000e+00 0.000000000000000e+00 0.000000000000000e+00
0.000000000000000e+00 0.000000000000000e+00 0.000000000000000e+00
0.000000000000000e+00 0.000000000000000e+00 0.000000000000000e+00
0.000000000000000e+00 0.000000000000000e+00 0.000000000000000e+00
0.000000000000000e+00 0.000000000000000e+00 0.000000000000000e+00
0.000000000000000e+00 0.000000000000000e+00 0.000000000000000e+00
0.000000000000000e+00 0.000000000000000e+00 0.000000000000000e+00
0.000000000000000e+00 0.000000000000000e+00 0.000000000000000e+00
0.000000000000000e+00 0.000000000000000e+00 0.000000000000000e+00
0.000000000000000e+00 0.000000000000000e+00 0.000000000000000e+00
0.000000000000000e+00 0.000000000000000e+00 0.000000000000000e+00
0.000000000000000e+00 0.000000000000000e+00 0.000000000000000e+00
0.000000000000000e+00 0.000000000000000e+00 0.000000000000000e+00
0.000000000000000e+00 0.000000000000000e+00 0.000000000000000e+00
0.000000000000000e+00 0.000000000000000e+00 0.000000000000000e+00
0.000000000000000e+00 0.000000000000000e+00 0.000000000000000e+00
0.000000000000000e+00 0.000000000000000e+00 0.000000000000000e+00
0.000000000000000e+00 0.000000000000000e+00 0.000000000000000e+00
0.000000000000000e+00 0.000000000000000e+00 0.000000000000000e+00
0.000000000000000e+00 0.000000000000000e+00 0.000000000000000e+00
0.000000000000000e+00 0.000000000000000e+00 0.000000000000000e+00
0.000000000000000e+00 0.000000000000000e+00 0.000000000000000e+00
0.000000000000000e+00 0.000000000000000e+00 0.000000000000000e+00
0.000000000000000e+00 0.000000000000000e+00 0.000000000000000e+00
0.000000000000000e+00 0.000000000000000e+00 0.000000000000000e+00
0.000000000000000e+00 0.000000000000000e+00 0.000000000000000e+00
0.000000000000000e+00 0.000000000000000e+00 0.000000000000000e+00
0.000000000000000e+00 0.000000000000000e+00 0.000000000000000e+00
0.000000000000000e+00 0.000000000000000e+00 0.000000000000000e+00
0.000000000000000e+00 0.000000000000000e+00 0.000000000000000e+00
0.000000000000000e+00 0.000000000000000e+00 0.000000000000000e+00
0.000000000000000e+00 0.000000000000000e+00 0.000000000000000e+00
0.000000000000000e+00 0.000000000000000e+00 0.000000000000000e+00
0.000000000000000e+00 0.000000000000000e+00 0.000000000000000e+00
0.000000000000000e+00 0.000000000000000e+00 0.000000000000000e+00
0.000000000000000e+00 0.000000000000000e+00 0.000000000000000e+00
0.000000000000000e+00 0.000000000000000e+00 0.000000000000000e+00
0.000000000000000e+00 0.000000000000000e+00 0.000000000000000e+00
0.000000000000000e+00 0.000000000000000e+00 0.000000000000000e+00
0.000000000000000e+00 0.000000000000000e+00 0.000000000000000e+00
0.000000000000000e+00 0.000000000000000e+00 0.000000000000000e+00
0.000000000000000e+00 0.000000000000000e+00 0.000000000000000e+00
0.000000000000000e+00 0.000000000000000e+00 0.000000000000000e+00
0.000000000000000e+00 0.000000000000000e+00 0.000000000000000e+00
0.000000000000000e+00 0.000000000000000e+00 0.000000000000000e+00
0.000000000000000e+00 0.000000000000000e+00 0.000000000000000e+00
0.000000000000000e+00 0.000000000000000e+00 0.000000000000000e+00
0.000000000000000e+00 0.000000000000000e+00 0.000000000000000e+00
0.000000000000000e+00 0.000000000000000e+00 0.000000000000000e+00
0.000000000000000e+00 0.000000000000000e+00 0.000000000000000e+00
0.000000000000000e+00 0.000000000000000e+00 0.000000000000000e+00
0.000000000000000e+00 0.000000000000000e+00 0.000000000000000e+00
0.000000000000000e+00 0.000000000000000e+00 0.000000000000000e+00
0.000000000000000e+00 0.000000000000000e+00 0.000000000000000e+00
0.000000000000000e+00 0.000000000000000e+00 0.000000000000000e+00
0.000000000000000e+00 0.000000000000000e+00 0.000000000000000e+00
0.000000000000000e+00 0.000000000000000e+00 0.000000000000000e+00
0.000000000000000e+00 0.000000000000000e+00 0.000000000000000e+00
0.000000000000000e+00 0.000000000000000e+00 0.000000000000000e+00
0.000000000000000e+00 0.000000000000000e+00 0.000000000000000e+00
0.000000000000000e+00 0.000000000000000e+00 0.000000000000000e+00
0.000000000000000e+00 0.000000000000000e+00 0.000000000000000e+00
0.000000000000000e+00 0.000000000000000e+00 0.000000000000000e+00
0.000000000000000e+00 0.000000000000000e+00 0.000000000000000e+00
0.000000000000000e+00 0.000000000000000e+00 0.000000000000000e+00
0.000000000000000e+00 0.000000000000000e+00 0.000000000000000e+00
0.000000000000000e+00 0.000000000000000e+00 0.000000000000000e+00
0.000000000000000e+00 0.000000000000000e+00 0.000000000000000e+00
0.000000000000000e+00 0.000000000000000e+00 0.000000000000000e+00
0.000000000000000e+00 0.000000000000000e+00 0.000000000000000e+00
0.000000000000000e+00 0.000000000000000e+00 0.000000000000000e+00
0.000000000000000e+00 0.000000000000000e+00 0.000000000000000e+00
0.000000000000000e+00 0.000000000000000e+00 0.000000000000000e+00
0.000000000000000e+00 0.000000000000000e+00 0.000000000000000e+00
0.000000000000000e+00 0.000000000000000e+00 0.000000000000000e+00
0.000000000000000e+00 0.000000000000000e+00 0.000000000000000e+00
0.000000000000000e+00 0.000000000000000e+00 0.000000000000000e+00
0.000000000000000e+00 0.000000000000000e+00 0.000000000000000e+00
0.000000000000000e+00 0.000000000000000e+00 0.000000000000000e+00
0.000000000000000e+00 0.000000000000000e+00 0.000000000000000e+00
0.000000000000000e+00 0.000000000000000e+00 0.000000000000000e+00
0.000000000000000e+00 0.000000000000000e+00 0.000000000000000e+00
0.000000000000000e+00 0.000000000000000e+00 0.000000000000000e+00
0.000000000000000e+00 0.000000000000000e+00 0.000000000000000e+00
0.000000000000000e+00 0.000000000000000e+00 0.000000000000000e+00
0.000000000000000e+00 0.000000000000000e+00 0.000000000000000e+00
0.000000000000000e+00 0.000000000000000e+00 0.000000000000000e+00
0.000000000000000e+00 0.000000000000000e+00 0.000000000000000e+00
0.000000000000000e+00 0.000000000000000e+00 0.000000000000000e+00
0.000000000000000e+00 0.000000000000000e+00 0.000000000000000e+00
0.000000000000000e+00 0.000000000000000e+00 0.000000000000000e+00
0.000000000000000e+00 0.000000000000000e+00 0.000000000000000e+00
0.000000000000000e+00 0.000000000000000e+00 0.000000000000000e+00
0.000000000000000e+00 0.000000000000000e+00 0.000000000000000e+00