# vtk DataFile Version 3.0
# Dislocation lines converted from MoDELib file
ASCII
DATASET UNSTRUCTURED_GRID
POINTS 2893 double
-1.429999999999877e+00  3.863858941524650e+02 -2.918975276816622e+03
-1.429999999999897e+00 -3.863858941524674e+02 -2.918975276816622e+03
-1.429999999999897e+00  0.000000000000000e+00 -2.918975276816622e+03
-1.430000000000221e+00  0.000000000000000e+00  2.918975276816619e+03
-1.430000000000221e+00 -3.863858941524674e+02  2.918975276816619e+03
-1.430000000000201e+00  3.863858941524653e+02  2.918975276816619e+03
-1.148445549362900e+03  1.101267788113109e+00 -2.918975276816622e+03
-1.148433510681640e+03 -1.062317645104890e+00 -2.918975276816622e+03
-1.148353198654362e+03 -1.742186890638015e+00 -2.918975276816622e+03
-1.148404786585512e+03 -3.962968835224148e+00 -2.918975276816622e+03
-1.148670757980944e+03 -5.192949456551087e+00 -2.918975276816622e+03
-1.148384079698922e+03 -6.490117507568369e+00 -2.918975276816622e+03
-1.147447920628318e+03 -8.562573812451681e+00 -2.918975276816622e+03
-1.148303107454804e+03 -1.296521242737966e+01 -2.918975276816622e+03
-1.148398384605552e+03 -1.364388411066436e+01 -2.918975276816622e+03
-1.148364317523361e+03 -1.661030350783009e+01 -2.918975276816622e+03
-1.148226728832475e+03 -2.009491100390569e+01 -2.918975276816622e+03
-1.148281486327749e+03 -2.290318666253531e+01 -2.918975276816622e+03
-1.148207235069301e+03 -2.691516670336486e+01 -2.918975276816622e+03
-1.148230213462701e+03 -2.804286909418526e+01 -2.918975276816622e+03
-1.148177811596410e+03 -3.455549669379568e+01 -2.918975276816622e+03
-1.148164353862347e+03 -3.540729313247409e+01 -2.918975276816622e+03
-1.148141097711895e+03 -3.851513900122100e+01 -2.918975276816622e+03
-1.148234160813345e+03 -4.348633066155313e+01 -2.918975276816622e+03
-1.148079363461694e+03 -4.492455230162599e+01 -2.918975276816622e+03
-1.147904941071301e+03 -5.005798973552037e+01 -2.918975276816622e+03
-1.148092566803035e+03 -5.593831779149176e+01 -2.918975276816622e+03
-1.148014091260028e+03 -5.836911347355534e+01 -2.918975276816622e+03
-1.147770753266507e+03 -6.003736755348592e+01 -2.918975276816622e+03
-1.147998494735986e+03 -6.121629489021283e+01 -2.918975276816622e+03
-1.147925228078725e+03 -6.327555586543885e+01 -2.918975276816622e+03
-1.147958165921901e+03 -6.426129579834398e+01 -2.918975276816622e+03
-1.147845370407511e+03 -6.639809472076824e+01 -2.918975276816622e+03
-1.147974254752295e+03 -6.741908279446766e+01 -2.918975276816622e+03
-1.147825671402449e+03 -6.995396595614959e+01 -2.918975276816622e+03
-1.147894012934603e+03 -7.065750936929973e+01 -2.918975276816622e+03
-1.147766875118400e+03 -7.212122717022490e+01 -2.918975276816622e+03
-1.147951849174743e+03 -7.418846033002457e+01 -2.918975276816622e+03
-1.147748643710601e+03 -7.531410844508535e+01 -2.918975276816622e+03
-1.147843927685155e+03 -7.637987530272878e+01 -2.918975276816622e+03
-1.147696277825670e+03 -7.837002608467317e+01 -2.918975276816622e+03
-1.147840928400254e+03 -8.038440789262856e+01 -2.918975276816622e+03
-1.147723363309830e+03 -8.148936916811196e+01 -2.918975276816622e+03
-1.147829156914525e+03 -8.370468265950026e+01 -2.918975276816622e+03
-1.147687100415283e+03 -8.524616250665801e+01 -2.918975276816622e+03
-1.147842214357709e+03 -8.727929953745742e+01 -2.918975276816622e+03
-1.147668240199887e+03 -8.947926720179582e+01 -2.918975276816622e+03
-1.147764892713477e+03 -9.035786661746319e+01 -2.918975276816622e+03
-1.147644648253111e+03 -9.208511597888277e+01 -2.918975276816622e+03
-1.147756246120968e+03 -9.483961826248712e+01 -2.918975276816622e+03
-1.147642062560141e+03 -9.554822646666508e+01 -2.918975276816622e+03
-1.147723361081268e+03 -9.844463893989966e+01 -2.918975276816622e+03
-1.147617568377622e+03 -1.003487554806580e+02 -2.918975276816622e+03
-1.147726783439443e+03 -1.013847197916222e+02 -2.918975276816622e+03
-1.147598032350246e+03 -1.032453519141403e+02 -2.918975276816622e+03
-1.147675409699508e+03 -1.042473466321441e+02 -2.918975276816622e+03
-1.147579003635871e+03 -1.062253276162858e+02 -2.918975276816622e+03
-1.147649226712513e+03 -1.072796298989042e+02 -2.918975276816622e+03
-1.147573632753093e+03 -1.096930330994632e+02 -2.918975276816622e+03
-1.147627037005778e+03 -1.105507054054468e+02 -2.918975276816622e+03
-1.147512312772948e+03 -1.122557970627117e+02 -2.918975276816622e+03
-1.147563844723713e+03 -1.141066251487999e+02 -2.918975276816622e+03
-1.147614678402907e+03 -1.141963543712850e+02 -2.918975276816622e+03
-1.147628510427208e+03 -1.157378465606965e+02 -2.918975276816622e+03
-1.147576109099598e+03 -1.183231921899975e+02 -2.918975276816622e+03
-1.147609337613075e+03 -1.201158498620745e+02 -2.918975276816622e+03
-1.147591879772212e+03 -1.213431470375277e+02 -2.918975276816622e+03
-1.147629968884745e+03 -1.236074196044016e+02 -2.918975276816622e+03
-1.147599615671419e+03 -1.248557497011734e+02 -2.918975276816622e+03
-1.147601975402266e+03 -1.294999509328848e+02 -2.918975276816622e+03
-1.147634689349748e+03 -1.297522263449068e+02 -2.918975276816622e+03
-1.147654024511961e+03 -1.319560137089790e+02 -2.918975276816622e+03
-1.147622913924411e+03 -1.340765943811996e+02 -2.918975276816622e+03
-1.147639730018882e+03 -1.343738826995792e+02 -2.918975276816622e+03
-1.147642383329194e+03 -1.357579407924337e+02 -2.918975276816622e+03
-1.147649129929240e+03 -1.383907595654906e+02 -2.918975276816622e+03
-1.147610171215314e+03 -1.400749736162081e+02 -2.918975276816622e+03
-1.147706074610343e+03 -1.412835375705533e+02 -2.918975276816622e+03
-1.147709504229470e+03 -1.431664750705903e+02 -2.918975276816622e+03
-1.147676104324888e+03 -1.441701007484793e+02 -2.918975276816622e+03
-1.147709439186997e+03 -1.461341177933552e+02 -2.918975276816622e+03
-1.147737488352938e+03 -1.471532804011249e+02 -2.918975276816622e+03
-1.147763278206116e+03 -1.496673687601048e+02 -2.918975276816622e+03
-1.147743612632720e+03 -1.503680042842840e+02 -2.918975276816622e+03
-1.147731710160349e+03 -1.520388491058403e+02 -2.918975276816622e+03
-1.147724692191684e+03 -1.540272273560671e+02 -2.918975276816622e+03
-1.147808877283660e+03 -1.540540885240634e+02 -2.918975276816622e+03
-1.147784526982849e+03 -1.559561978515906e+02 -2.918975276816622e+03
-1.147803427033308e+03 -1.601501881187462e+02 -2.918975276816622e+03
-1.147831824175819e+03 -1.612048145389789e+02 -2.918975276816622e+03
-1.147825000500438e+03 -1.632521193259838e+02 -2.918975276816622e+03
-1.147761150483382e+03 -1.647730169940640e+02 -2.918975276816622e+03
-1.147893418036281e+03 -1.723249957697250e+02 -2.918975276816622e+03
-1.147908874563277e+03 -1.756640537844411e+02 -2.918975276816622e+03
-1.147889330423199e+03 -1.783165769463907e+02 -2.918975276816622e+03
-1.147924405950725e+03 -1.802168575218611e+02 -2.918975276816622e+03
-1.147929311129067e+03 -1.812745231294412e+02 -2.918975276816622e+03
-1.147941259182883e+03 -1.831434156111599e+02 -2.918975276816622e+03
-1.147915120307883e+03 -1.847069178782286e+02 -2.918975276816622e+03
-1.147892242670321e+03 -1.894801862841209e+02 -2.918975276816622e+03
-1.147896346426599e+03 -1.900379851743965e+02 -2.918975276816622e+03
-1.148008748263863e+03 -1.919430418449642e+02 -2.918975276816622e+03
-1.147970467696362e+03 -1.938947195240263e+02 -2.918975276816622e+03
-1.147953337979146e+03 -1.942880130595704e+02 -2.918975276816622e+03
-1.147873058543491e+03 -1.960516873350871e+02 -2.918975276816622e+03
-1.147915245719515e+03 -2.000911225598807e+02 -2.918975276816622e+03
-1.147922051963856e+03 -2.010806568640094e+02 -2.918975276816622e+03
-1.147943530030479e+03 -2.031308070206968e+02 -2.918975276816622e+03
-1.147766719822749e+03 -2.041194012667836e+02 -2.918975276816622e+03
-1.147910735802454e+03 -2.060169062417621e+02 -2.918975276816622e+03
-1.147846464510711e+03 -2.071021378265434e+02 -2.918975276816622e+03
-1.147880513000272e+03 -2.096421669993495e+02 -2.918975276816622e+03
-1.147788927060478e+03 -2.104399836878014e+02 -2.918975276816622e+03
-1.147848232463451e+03 -2.123836422491591e+02 -2.918975276816622e+03
-1.147727509446674e+03 -2.155943849876410e+02 -2.918975276816622e+03
-1.147740224951135e+03 -2.182363907955094e+02 -2.918975276816622e+03
-1.147658975716915e+03 -2.200668928525565e+02 -2.918975276816622e+03
-1.147681153221018e+03 -2.212032419347906e+02 -2.918975276816622e+03
-1.147599331625085e+03 -2.231658505548549e+02 -2.918975276816622e+03
-1.147592675347578e+03 -2.246360592712327e+02 -2.918975276816622e+03
-1.147460522066702e+03 -2.294509788924918e+02 -2.918975276816622e+03
-1.147435235791598e+03 -2.301830157548864e+02 -2.918975276816622e+03
-1.147386866910269e+03 -2.319961272378026e+02 -2.918975276816622e+03
-1.147313159152982e+03 -2.338081210781242e+02 -2.918975276816622e+03
-1.147246003283518e+03 -2.339087795503136e+02 -2.918975276816622e+03
-1.147416383377241e+03 -2.355482709605916e+02 -2.918975276816622e+03
-1.147473298500935e+03 -2.381359659554365e+02 -2.918975276816622e+03
-1.147605967967507e+03 -2.400681548596052e+02 -2.918975276816622e+03
-1.147564570249688e+03 -2.411821597463746e+02 -2.918975276816622e+03
-1.147701750457467e+03 -2.431696311564859e+02 -2.918975276816622e+03
-1.147683557991376e+03 -2.444741109712462e+02 -2.918975276816622e+03
-1.147864379252672e+03 -2.470157182692862e+02 -2.918975276816622e+03
-1.147820871321228e+03 -2.470554567107913e+02 -2.918975276816622e+03
-1.147790721849938e+03 -2.497765505657071e+02 -2.918975276816622e+03
-1.147796978947550e+03 -2.508560741358255e+02 -2.918975276816622e+03
-1.147789661176036e+03 -2.516889784894987e+02 -2.918975276816622e+03
-1.147788884171119e+03 -2.538529584937048e+02 -2.918975276816622e+03
-1.147791901933464e+03 -2.552309463394717e+02 -2.918975276816622e+03
-1.147783202495768e+03 -2.574753394970433e+02 -2.918975276816622e+03
-1.147767745826116e+03 -2.577210175094405e+02 -2.918975276816622e+03
-1.147775917948628e+03 -2.601532935205640e+02 -2.918975276816622e+03
-1.147797478729731e+03 -2.609425281482905e+02 -2.918975276816622e+03
-1.147793386756090e+03 -2.634033062499723e+02 -2.918975276816622e+03
[...]
POINT_DATA 2893
VECTORS PK_force double
0.000000000000000e+00 0.000000000000000e+00 0.000000000000000e+00
0.000000000000000e+00 0.000000000000000e+00 0.000000000000000e+00
0.000000000000000e+00 0.000000000000000e+00 0.000000000000000e+00
0.000000000000000e+00 0.000000000000000e+00 0.000000000000000e+00
0.000000000000000e+00 0.000000000000000e+00 0.000000000000000e+00
0.000000000000000e+00 0.000000000000000e+00 0.000000000000000e+00
0.000000000000000e+00 0.000000000000000e+00 0.000000000000000e+00
0.000000000000000e+00 0.000000000000000e+00 0.000000000000000e+00
0.000000000000000e+00 0.000000000000000e+00 0.000000000000000e+00
0.000000000000000e+00 0.000000000000000e+00 0.000000000000000e+00
0.000000000000000e+00 0.000000000000000e+00 0.000000000000000e+00
0.000000000000000e+00 0.000000000000000e+00 0.000000000000000e+00
0.000000000000000e+00 0.000000000000000e+00 0.000000000000000e+00
0.000000000000000e+00 0.000000000000000e+00 0.000000000000000e+00
0.000000000000000e+00 0.000000000000000e+00 0.000000000000000e+00
0.000000000000000e+00 0.000000000000000e+00 0.000000000000000e+00
0.000000000000000e+00 0.000000000000000e+00 0.000000000000000e+00
0.000000000000000e+00 0.000000000000000e+00 0.000000000000000e+00
0.000000000000000e+00 0.000000000000000e+00 0.000000000000000e+00
0.000000000000000e+00 0.000000000000000e+00 0.000000000000000e+00
0.000000000000000e+00 0.000000000000000e+00 0.000000000000000e+00
0.000000000000000e+00 0.000000000000000e+00 0.000000000000000e+00
0.000000000000000e+00 0.000000000000000e+00 0.000000000000000e+00
0.000000000000000e+00 0.000000000000000e+00 0.000000000000000e+00
0.000000000000000e+00 0.000000000000000e+00 0.000000000000000e+00
0.000000000000000e+00 0.000000000000000e+00 0.000000000000000e+00
0.000000000000000e+00 0.000000000000000e+00 0.000000000000000e+00
0.000000000000000e+00 0.000000000000000e+00 0.000000000000000e+00
0.000000000000000e+00 0.000000000000000e+00 0.000000000000000e+00
0.000000000000000e+00 0.000000000000000e+00 0.000000000000000e+00
0.000000000000000e+00 0.000000000000000e+00 0.000000000000000e+00
0.000000000000000e+00 0.000000000000000e+00 0.000000000000000e+00
0.000000000000000e+00 0.000000000000000e+00 0.000000000000000e+00
0.000000000000000e+00 0.000000000000000e+00 0.000000000000000e+00
0.000000000000000e+00 0.000000000000000e+00 0.000000000000000e+00
0.000000000000000e+00 0.000000000000000e+00 0.000000000000000e+00
0.000000000000000e+00 0.000000000000000e+00 0.000000000000000e+00
0.000000000000000e+00 0.000000000000000e+00 0.000000000000000e+00
0.000000000000000e+00 0.000000000000000e+00 0.000000000000000e+00
0.000000000000000e+00 0.000000000000000e+00 0.000000000000000e+00
0.000000000000000e+00 0.000000000000000e+00 0.000000000000000e+00
0.000000000000000e+00 0.000000000000000e+00 0.000000000000000e+00
0.000000000000000e+00 0.000000000000000e+00 0.000000000000000e+00
0.000000000000000e+00 0.000000000000000e+00 0.000000000000000e+00
0.000000000000000e+00 0.000000000000000e+00 0.000000000000000e+00
0.000000000000000e+00 0.000000000000000e+00 0.000000000000000e+00
0.000000000000000e+00 0.000000000000000e+00 0.000000000000000e+00
0.000000000000000e+00 0.000000000000000e+00 0.000000000000000e+00
0.000000000000000e+00 0.000000000000000e+00 0.000000000000000e+00
0.000000000000000e+00 0.000000000000000e+00 0.000000000000000e+00
0.000000000000000e+00 0.000000000000000e+00 0.000000000000000e+00
0.000000000000000e+00 0.000000000000000e+00 0.000000000000000e+00
0.000000000000000e+00 0.000000000000000e+00 0.000000000000000e+00
0.000000000000000e+00 0.000000000000000e+00 0.000000000000000e+00
0.000000000000000e+00 0.000000000000000e+00 0.000000000000000e+00
0.000000000000000e+00 0.000000000000000e+00 0.000000000000000e+00
0.000000000000000e+00 0.000000000000000e+00 0.000000000000000e+00
0.000000000000000e+00 0.000000000000000e+00 0.000000000000000e+00
0.000000000000000e+00 0.000000000000000e+00 0.000000000000000e+00
0.000000000000000e+00 0.000000000000000e+00 0.000000000000000e+00
0.000000000000000e+00 0.000000000000000e+00 0.000000000000000e+00
0.000000000000000e+00 0.000000000000000e+00 0.000000000000000e+00
0.000000000000000e+00 0.000000000000000e+00 0.000000000000000e+00
0.000000000000000e+00 0.000000000000000e+00 0.000000000000000e+00
0.000000000000000e+00 0.000000000000000e+00 0.000000000000000e+00
0.000000000000000e+00 0.000000000000000e+00 0.000000000000000e+00
0.000000000000000e+00 0.000000000000000e+00 0.000000000000000e+00
0.000000000000000e+00 0.000000000000000e+00 0.000000000000000e+00
0.000000000000000e+00 0.000000000000000e+00 0.000000000000000e+00
0.000000000000000e+00 0.000000000000000e+00 0.000000000000000e+00
0.000000000000000e+00 0.000000000000000e+00 0.000000000000000e+00
0.000000000000000e+00 0.000000000000000e+00 0.000000000000000e+00
0.000000000000000e+00 0.000000000000000e+00 0.000000000000000e+00
0.000000000000000e+00 0.000000000000000e+00 0.000000000000000e+00
0.000000000000000e+00 0.000000000000000e+00 0.000000000000000e+00
0.000000000000000e+00 0.000000000000000e+00 0.000000000000000e+00
0.000000000000000e+00 0.000000000000000e+00 0.000000000000000e+00
0.000000000000000e+00 0.000000000000000e+00 0.000000000000000e+00
0.000000000000000e+00 0.000000000000000e+00 0.000000000000000e+00
0.000000000000000e+00 0.000000000000000e+00 0.000000000000000e+00
0.000000000000000e+00 0.000000000000000e+00 0.000000000000000e+00
0.000000000000000e+00 0.000000000000000e+00 0.000000000000000e+00
0.000000000000000e+00 0.000000000000000e+00 0.000000000000000e+00
0.000000000000000e+00 0.000000000000000e+00 0.000000000000000e+00
0.000000000000000e+00 0.000000000000000e+00 0.000000000000000e+00
0.000000000000000e+00 0.000000000000000e+00 0.000000000000000e+00
0.000000000000000e+00 0.000000000000000e+00 0.000000000000000e+00
0.000000000000000e+00 0.000000000000000e+00 0.000000000000000e+00
0.000000000000000e+00 0.000000000000000e+00 0.000000000000000e+00
0.000000000000000e+00 0.000000000000000e+00 0.000000000000000e+00
0.000000000000000e+00 0.000000000000000e+00 0.000000000000000e+00
0.000000000000000e+00 0.000000000000000e+00 0.000000000000000e+00
0.000000000000000e+00 0.000000000000000e+00 0.000000000000000e+00
0.000000000000000e+00 0.000000000000000e+00 0.000000000000000e+00
0.000000000000000e+00 0.000000000000000e+00 0.000000000000000e+00
0.000000000000000e+00 0.000000000000000e+00 0.000000000000000e+00
0.000000000000000e+00 0.000000000000000e+00 0.000000000000000e+00
0.000000000000000e+00 0.000000000000000e+00 0.000000000000000e+00
0.000000000000000e+00 0.000000000000000e+00 0.000000000000000e+00
0.000000000000000e+00 0.000000000000000e+00 0.000000000000000e+00
0.000000000000000e+00 0.000000000000000e+00 0.000000000000000e+00
0.000000000000000e+00 0.000000000000000e+00 0.000000000000000e+00
0.000000000000000e+00 0.000000000000000e+00 0.000000000000000e+00
0.000000000000000e+00 0.000000000000000e+00 0.000000000000000e+00
0.000000000000000e+00 0.000000000000000e+00 0.000000000000000e+00
0.000000000000000e+00 0.000000000000000e+00 0.000000000000000e+00
0.000000000000000e+00 0.000000000000000e+00 0.000000000000000e+00
0.000000000000000e+00 0.000000000000000e+00 0.000000000000000e+00
0.000000000000000e+00 0.000000000000000e+00 0.000000000000000e+00
0.000000000000000e+00 0.000000000000000e+00 0.000000000000000e+00
0.000000000000000e+00 0.000000000000000e+00 0.000000000000000e+00
0.000000000000000e+00 0.000000000000000e+00 0.000000000000000e+00
0.000000000000000e+00 0.000000000000000e+00 0.000000000000000e+00
0.000000000000000e+00 0.000000000000000e+00 0.000000000000000e+00
0.000000000000000e+00 0.000000000000000e+00 0.000000000000000e+00
0.000000000000000e+00 0.000000000000000e+00 0.000000000000000e+00
0.000000000000000e+00 0.000000000000000e+00 0.000000000000000e+00
0.000000000000000e+00 0.000000000000000e+00 0.000000000000000e+00
0.000000000000000e+00 0.000000000000000e+00 0.000000000000000e+00
0.000000000000000e+00 0.000000000000000e+00 0.000000000000000e+00
0.000000000000000e+00 0.000000000000000e+00 0.000000000000000e+00
0.000000000000000e+00 0.000000000000000e+00 0.000000000000000e+00
0.000000000000000e+00 0.000000000000000e+00 0.000000000000000e+00
0.000000000000000e+00 0.000000000000000e+00 0.000000000000000e+00
0.000000000000000e+00 0.000000000000000e+00 0.000000000000000e+00
0.000000000000000e+00 0.000000000000000e+00 0.000000000000000e+00
0.000000000000000e+00 0.000000000000000e+00 0.000000000000000e+00
0.000000000000000e+00 0.000000000000000e+00 0.000000000000000e+00
0.000000000000000e+00 0.000000000000000e+00 0.000000000000000e+00
0.000000000000000e+00 0.000000000000000e+00 0.000000000000000e+00
0.000000000000000e+00 0.000000000000000e+00 0.000000000000000e+00
0.000000000000000e+00 0.000000000000000e+00 0.000000000000000e+00
0.000000000000000e+00 0.000000000000000e+00 0.000000000000000e+00
0.000000000000000e+00 0.000000000000000e+00 0.000000000000000e+00
0.000000000000000e+00 0.000000000000000e+00 0.000000000000000e+00
0.000000000000000e+00 0.000000000000000e+00 0.000000000000000e+00
0.000000000000000e+00 0.000000000000000e+00 0.000000000000000e+00
0.000000000000000e+00 0.000000000000000e+00 0.000000000000000e+00
0.000000000000000e+00 0.000000000000000e+00 0.000000000000000e+00
0.000000000000000e+00 0.000000000000000e+00 0.000000000000000e+00
0.000000000000000e+00 0.000000000000000e+00 0.000000000000000e+00
0.000000000000000e+00 0.000000000000000e+00 0.000000000000000e+00
0.000000000000000e+00 0.000000000000000e+00 0.000000000000000e+00
0.000000000000000e+00 0.000000000000000e+00 0.000000000000000e+00
0.000000000000000e+00 0.000000000000000e+00 0.000000000000000e+00
0.000000000000000e+00 0.000000000000000e+00 0.000000000000000e+00
0.000000000000000e+00 0.000000000000000e+00 0.000000000000000e+00
0.000000000000000e+00 0.000000000000000e+00 0.000000000000000e+00
0.000000000000000e+00 0.000000000000000e+00 0.000000000000000e+00
0.000000000000000e+00 0.000000000000000e+00 0.000000000000000e+00
0.000000000000000e+00 0.000000000000000e+00 0.000000000000000e+00
0.000000000000000e+00 0.000000000000000e+00 0.000000000000000e+00
0.000000000000000e+00 0.000000000000000e+00 0.000000000000000e+00
0.000000000000000e+00 0.000000000000000e+00 0.000000000000000e+00
0.000000000000000e+00 0.000000000000000e+00 0.000000000000000e+00
0.000000000000000e+00 0.000000000000000e+00 0.000000000000000e+00
0.000000000000000e+00 0.000000000000000e+00 0.000000000000000e+00
0.000000000000000e+00 0.000000000000000e+00 0.000000000000000e+00
0.000000000000000e+00 0.000000000000000e+00 0.000000000000000e+00
0.000000000000000e+00 0.000000000000000e+00 0.000000000000000e+00
0.000000000000000e+00 0.000000000000000e+00 0.000000000000000e+00
0.000000000000000e+00 0.000000000000000e+00 0.000000000000000e+00
0.000000000000000e+00 0.000000000000000e+00 0.000000000000000e+00
0.000000000000000e+00 0.000000000000000e+00 0.000000000000000e+00
0.000000000000000e+00 0.000000000000000e+00 0.000000000000000e+00
0.000000000000000e+00 0.000000000000000e+00 0.000000000000000e+00
0.000000000000000e+00 0.000000000000000e+00 0.000000000000000e+00
0.000000000000000e+00 0.000000000000000e+00 0.000000000000000e+00
0.000000000000000e+00 0.000000000000000e+00 0.000000000000000e+00
0.000000000000000e+00 0.000000000000000e+00 0.000000000000000e+00
0.000000000000000e+00 0.000000000000000e+00 0.000000000000000e+00
0.000000000000000e+00 0.000000000000000e+00 0.000000000000000e+00
0.000000000000000e+00 0.000000000000000e+00 0.000000000000000e+00
0.000000000000000e+00 0.000000000000000e+00 0.000000000000000e+00
0.000000000000000e+00 0.000000000000000e+00 0.000000000000000e+00
0.000000000000000e+00 0.000000000000000e+00 0.000000000000000e+00
0.000000000000000e+00 0.000000000000000e+00 0.000000000000000e+00
0.000000000000000e+00 0.000000000000000e+00 0.000000000000000e+00
0.000000000000000e+00 0.000000000000000e+00 0.000000000000000e+00
0.000000000000000e+00 0.000000000000000e+00 0.000000000000000e+00
0.000000000000000e+00 0.000000000000000e+00 0.000000000000000e+00
0.000000000000000e+00 0.000000000000000e+00 0.000000000000000e+00
0.000000000000000e+00 0.000000000000000e+00 0.000000000000000e+00
0.000000000000000e+00 0.000000000000000e+00 0.000000000000000e+00
0.000000000000000e+00 0.000000000000000e+00 0.000000000000000e+00
0.000000000000000e+00 0.000000000000000e+00 0.000000000000000e+00
0.000000000000000e+00 0.000000000000000e+00 0.000000000000000e+00
0.000000000000000e+00 0.000000000000000e+00 0.000000000000000e+00
0.000000000000000e+00 0.000000000000000e+00 0.000000000000000e+00
0.000000000000000e+00 0.000000000000000e+00 0.000000000000000e+00
0.000000000000000e+00 0.000000000000000e+00 0.000000000000000e+00
0.000000000000000e+00 0.000000000000000e+00 0.000000000000000e+00
0.000000000000000e+00 0.000000000000000e+00 0.000000000000000e+00
0.000000000000000e+00 0.000000000000000e+00 0.000000000000000e+00
0.000000000000000e+00 0.000000000000000e+00 0.000000000000000e+00
0.000000000000000e+00 0.000000000000000e+00 0.000000000000000e+00
0.000000000000000e+00 0.000000000000000e+00 0.000000000000000e+00
0.000000000000000e+00 0.000000000000000e+00 0.000000000000000e+00
0.000000000000000e+00 0.000000000000000e+00 0.000000000000000e+00
0.000000000000000e+00 0.000000000000000e+00 0.000000000000000e+00
0.000000000000000e+00 0.000000000000000e+00 0.000000000000000e+00
0.000000000000000e+00 0.000000000000000e+00 0.000000000000000e+00
0.000000000000000e+00 0.000000000000000e+00 0.000000000000000e+00
0.000000000000000e+00 0.000000000000000e+00 0.000000000000000e+00
0.000000000000000e+00 0.000000000000000e+00 0.000000000000000e+00
0.000000000000000e+00 0.000000000000000e+00 0.000000000000000e+00
0.000000000000000e+00 0.000000000000000e+00 0.000000000000000e+00
0.000000000000000e+00 0.000000000000000e+00 0.000000000000000e+00
0.000000000000000e+00 0.000000000000000e+00 0.000000000000000e+00
0.000000000000000e+00 0.000000000000000e+00 0.000000000000000e+00
0.000000000000000e+00 0.000000000000000e+00 0.000000000000000e+00
0.000000000000000e+00 0.000000000000000e+00 0.000000000000000e+00
0.000000000000000e+00 0.000000000000000e+00 0.000000000000000e+00
0.000000000000000e+00 0.000000000000000e+00 0.000000000000000e+00
0.000000000000000e+00 0.000000000000000e+00 0.000000000000000e+00
0.000000000000000e+00 0.000000000000000e+00 0.000000000000000e+00
0.000000000000000e+00 0.000000000000000e+00 0.000000000000000e+00
0.000000000000000e+00 0.000000000000000e+00 0.000000000000000e+00
0.000000000000000e+00 0.000000000000000e+00 0.000000000000000e+00
0.000000000000000e+00 0.000000000000000e+00 0.000000000000000e+00
0.000000000000000e+00 0.000000000000000e+00 0.000000000000000e+00
0.000000000000000e+00 0.000000000000000e+00 0.000000000000000e+00
0.000000000000000e+00 0.000000000000000e+00 0.000000000000000e+00
0.000000000000000e+00 0.000000000000000e+00 0.000000000000000e+00
0.000000000000000e+00 0.000000000000000e+00 0.000000000000000e+00
0.000000000000000e+00 0.000000000000000e+00 0.000000000000000e+00
0.000000000000000e+00 0.000000000000000e+00 0.000000000000000e+00
0.000000000000000e+00 0.000000000000000e+00 0.000000000000000e+00
0.000000000000000e+00 0.000000000000000e+00 0.000000000000000e+00
0.000000000000000e+00 0.000000000000000e+00 0.000000000000000e+00
0.000000000000000e+00 0.000000000000000e+00 0.000000000000000e+00
0.000000000000000e+00 0.000000000000000e+00 0.000000000000000e+00
0.000000000000000e+00 0.000000000000000e+00 0.000000000000000e+00
0.000000000000000e+00 0.000000000000000e+00 0.000000000000000e+00
0.000000000000000e+00 0.000000000000000e+00 0.000000000000000e+00
0.000000000000000e+00 0.000000000000000e+00 0.000000000000000e+00
0.000000000000000e+00 0.000000000000000e+00 0.000000000000000e+00
0.000000000000000e+00 0.000000000000000e+00 0.000000000000000e+00
0.000000000000000e+00 0.000000000000000e+00 0.000000000000000e+00
0.000000000000000e+00 0.000000000000000e+00 0.000000000000000e+00
0.000000000000000e+00 0.000000000000000e+00 0.000000000000000e+00
0.000000000000000e+00 0.000000000000000e+00 0.000000000000000e+00
0.000000000000000e+00 0.000000000000000e+00 0.000000000000000e+00
0.000000000000000e+00 0.000000000000000e+00 0.000000000000000e+00
0.000000000000000e+00 0.000000000000000e+00 0.000000000000000e+00
0.000000000000000e+00 0.000000000000000e+00 0.000000000000000e+00
0.000000000000000e+00 0.000000000000000e+00 0.000000000000000e+00
0.000000000000000e+00 0.000000000000000e+00 0.000000000000000e+00
0.000000000000000e+00 0.000000000000000e+00 0.000000000000000e+00
0.000000000000000e+00 0.000000000000000e+00 0.000000000000000e+00
0.000000000000000e+00 0.000000000000000e+00 0.000000000000000e+00
0.000000000000000e+00 0.000000000000000e+00 0.000000000000000e+00
0.000000000000000e+00 0.000000000000000e+00 0.000000000000000e+00
0.000000000000000e+00 0.000000000000000e+00 0.000000000000000e+00
0.000000000000000e+00 0.000000000000000e+00 0.000000000000000e+00
0.000000000000000e+00 0.000000000000000e+00 0.000000000000000e+00
0.000000000000000e+00 0.000000000000000e+00 0.000000000000000e+00
0.000000000000000e+00 0.000000000000000e+00 0.000000000000000e+00
0.000000000000000e+00 0.000000000000000e+00 0.000000000000000e+00
0.000000000000000e+00 0.000000000000000e+00 0.000000000000000e+00
0.000000000000000e+00 0.000000000000000e+00 0.000000000000000e+00
0.000000000000000e+00 0.000000000000000e+00 0.000000000000000e+00
0.000000000000000e+00 0.000000000000000e+00 0.000000000000000e+00
0.000000000000000e+00 0.000000000000000e+00 0.000000000000000e+00
0.000000000000000e+00 0.000000000000000e+00 0.000000000000000e+00
0.000000000000000e+00 0.000000000000000e+00 0.000000000000000e+00
0.000000000000000e+00 0.000000000000000e+00 0.000000000000000e+00
0.000000000000000e+00 0.000000000000000e+00 0.000000000000000e+00
0.000000000000000e+00 0.000000000000000e+00 0.000000000000000e+00
0.000000000000000e+00 0.000000000000000e+00 0.000000000000000e+00
0.000000000000000e+00 0.000000000000000e+00 0.000000000000000e+00
0.000000000000000e+00 0.000000000000000e+00 0.000000000000000e+00
0.000000000000000e+00 0.000000000000000e+00 0.000000000000000e+00
0.000000000000000e+00 0.000000000000000e+00 0.000000000000000e+00
0.000000000000000e+00 0.000000000000000e+00 0.000000000000000e+00
0.000000000000000e+00 0.000000000000000e+00 0.000000000000000e+00
0.000000000000000e+00 0.000000000000000e+00 0.000000000000000e+00
0.000000000000000e+00 0.000000000000000e+00 0.000000000000000e+00
0.000000000000000e+00 0.000000000000000e+00 0.000000000000000e+00
0.000000000000000e+00 0.000000000000000e+00 0.000000000000000e+00
0.000000000000000e+00 0.000000000000000e+00 0.000000000000000e+00
0.000000000000000e+00 0.000000000000000e+00 0.000000000000000e+00
0.000000000000000e+00 0.000000000000000e+00 0.000000000000000e+00
0.000000000000000e+00 0.000000000000000e+00 0.000000000000000e+00
0.000000000000000e+00 0.000000000000000e+00 0.000000000000000e+00
0.000000000000000e+00 0.000000000000000e+00 0.000000000000000e+00
0.000000000000000e+00 0.000000000000000e+00 0.000000000000000e+00
0.000000000000000e+00 0.000000000000000e+00 0.000000000000000e+00
0.000000000000000e+00 0.000000000000000e+00 0.000000000000000e+00
0.000000000000000e+00 0.000000000000000e+00 0.000000000000000e+00
0.000000000000000e+00 0.000000000000000e+00 0.000000000000000e+00
0.000000000000000e+00 0.000000000000000e+00 0.000000000000000e+00
0.000000000000000e+00 0.000000000000000e+00 0.000000000000000e+00
0.000000000000000e+00 0.000000000000000e+00 0.000000000000000e+00
0.000000000000000e+00 0.000000000000000e+00 0.000000000000000e+00
0.000000000000000e+00 0.000000000000000e+00 0.000000000000000e+00
0.000000000000000e+00 0.000000000000000e+00 0.000000000000000e+00
0.000000000000000e+00 0.000000000000000e+00 0.000000000000000e+00
0.000000000000000e+00 0.000000000000000e+00 0.000000000000000e+00
0.000000000000000e+00 0.000000000000000e+00 0.000000000000000e+00
0.000000000000000e+00 0.000000000000000e+00 0.000000000000000e+00
0.000000000000000e+00 0.000000000000000e+00 0.000000000000000e+00