# vtk DataFile Version 3.0
# Dislocation lines converted from MoDELib file
ASCII
DATASET UNSTRUCTURED_GRID
POINTS 2855 double
-1.429999999999877e+00  3.863858941524650e+02 -2.918975276816622e+03
-1.429999999999897e+00 -3.863858941524674e+02 -2.918975276816622e+03
-1.429999999999897e+00  0.000000000000000e+00 -2.918975276816622e+03
-1.430000000000221e+00  0.000000000000000e+00  2.918975276816619e+03
-1.430000000000221e+00 -3.863858941524674e+02  2.918975276816619e+03
-1.430000000000201e+00  3.863858941524653e+02  2.918975276816619e+03
-1.148401673623224e+03  1.106043631834853e+00 -2.918975276816622e+03
-1.148371321860739e+03 -1.077648739626684e+00 -2.918975276816622e+03
-1.148385303665583e+03 -1.751533683413368e+00 -2.918975276816622e+03
-1.148381994565789e+03 -4.162811741031686e+00 -2.918975276816622e+03
-1.148348728346280e+03 -5.164816326817098e+00 -2.918975276816622e+03
-1.148043491802880e+03 -7.135499709453017e+00 -2.918975276816622e+03
-1.148305982270727e+03 -8.985538724973042e+00 -2.918975276816622e+03
-1.148319742589171e+03 -1.294806286245669e+01 -2.918975276816622e+03
-1.148272187261305e+03 -1.367798329822052e+01 -2.918975276816622e+03
-1.148306102335139e+03 -1.660436992650013e+01 -2.918975276816622e+03
-1.148222950548705e+03 -2.009480504266260e+01 -2.918975276816622e+03
-1.148257026958066e+03 -2.290277529884096e+01 -2.918975276816622e+03
-1.148188855908193e+03 -2.691535010479064e+01 -2.918975276816622e+03
-1.148213961223701e+03 -2.804157434266870e+01 -2.918975276816622e+03
-1.148167442035437e+03 -3.455382002363523e+01 -2.918975276816622e+03
-1.148150854780937e+03 -3.540590116186716e+01 -2.918975276816622e+03
-1.148133744849646e+03 -3.851456049196930e+01 -2.918975276816622e+03
-1.148100483518534e+03 -4.346578505615186e+01 -2.918975276816622e+03
-1.148084642836377e+03 -4.491812021242005e+01 -2.918975276816622e+03
-1.148039542188339e+03 -5.005713062049037e+01 -2.918975276816622e+03
-1.147988842428536e+03 -5.593732126448212e+01 -2.918975276816622e+03
-1.147995822560964e+03 -5.839222730988227e+01 -2.918975276816622e+03
-1.147934508313208e+03 -6.004142336097766e+01 -2.918975276816622e+03
-1.147980309049611e+03 -6.116638945461970e+01 -2.918975276816622e+03
-1.147889550154808e+03 -6.327839347096845e+01 -2.918975276816622e+03
-1.147964221626564e+03 -6.426600106575292e+01 -2.918975276816622e+03
-1.147849991956295e+03 -6.640611997372267e+01 -2.918975276816622e+03
-1.147944020099056e+03 -6.742478578308422e+01 -2.918975276816622e+03
-1.147811630776002e+03 -6.996137183176150e+01 -2.918975276816622e+03
-1.147913732584323e+03 -7.067173438341688e+01 -2.918975276816622e+03
-1.147773008123390e+03 -7.212569691085061e+01 -2.918975276816622e+03
-1.147886171215582e+03 -7.418281526389946e+01 -2.918975276816622e+03
-1.147747135300003e+03 -7.530232070100325e+01 -2.918975276816622e+03
-1.147870229434156e+03 -7.637546034245310e+01 -2.918975276816622e+03
-1.147718808171931e+03 -7.836729699089602e+01 -2.918975276816622e+03
-1.147843131345116e+03 -8.038738285387385e+01 -2.918975276816622e+03
-1.147710312589678e+03 -8.148784783193096e+01 -2.918975276816622e+03
-1.147845480444297e+03 -8.371711355513716e+01 -2.918975276816622e+03
-1.147713158335953e+03 -8.553978303387285e+01 -2.918975276816622e+03
-1.147787924025911e+03 -8.726413429761914e+01 -2.918975276816622e+03
-1.147638383926436e+03 -8.938895635199223e+01 -2.918975276816622e+03
-1.147807310686732e+03 -9.037814271254557e+01 -2.918975276816622e+03
-1.147691277709775e+03 -9.204013728575846e+01 -2.918975276816622e+03
-1.147760467358660e+03 -9.483531065297555e+01 -2.918975276816622e+03
-1.147648180686417e+03 -9.554551435847301e+01 -2.918975276816622e+03
-1.147763491941244e+03 -9.843558768263078e+01 -2.918975276816622e+03
-1.147640669804483e+03 -1.003596924773215e+02 -2.918975276816622e+03
-1.147720919554658e+03 -1.013924427791490e+02 -2.918975276816622e+03
-1.147612221848191e+03 -1.032421592424371e+02 -2.918975276816622e+03
-1.147707834480410e+03 -1.042501291079151e+02 -2.918975276816622e+03
-1.147599985336028e+03 -1.062163619165260e+02 -2.918975276816622e+03
-1.147675327799395e+03 -1.072758803406671e+02 -2.918975276816622e+03
-1.147583598073341e+03 -1.096913008404212e+02 -2.918975276816622e+03
-1.147651437841651e+03 -1.105493651004747e+02 -2.918975276816622e+03
-1.147523532340432e+03 -1.122723480412415e+02 -2.918975276816622e+03
-1.147551354700680e+03 -1.140916667156324e+02 -2.918975276816622e+03
-1.147714017120260e+03 -1.141025626976250e+02 -2.918975276816622e+03
-1.147668731790719e+03 -1.157201010666032e+02 -2.918975276816622e+03
-1.147589728672197e+03 -1.183231175732419e+02 -2.918975276816622e+03
-1.147617396760118e+03 -1.201151126869389e+02 -2.918975276816622e+03
-1.147598506149087e+03 -1.213429450592747e+02 -2.918975276816622e+03
-1.147617589550895e+03 -1.236062700926156e+02 -2.918975276816622e+03
-1.147617223704912e+03 -1.248546738740013e+02 -2.918975276816622e+03
-1.147641892107109e+03 -1.294797809836442e+02 -2.918975276816622e+03
-1.147615311958825e+03 -1.296891176407377e+02 -2.918975276816622e+03
-1.147638927667507e+03 -1.319524551252105e+02 -2.918975276816622e+03
-1.147669675281239e+03 -1.340682769315810e+02 -2.918975276816622e+03
-1.147639144982917e+03 -1.343602278817532e+02 -2.918975276816622e+03
-1.147640085146817e+03 -1.357579537981790e+02 -2.918975276816622e+03
-1.147672397933319e+03 -1.384086040064784e+02 -2.918975276816622e+03
-1.147686573446596e+03 -1.400530544973922e+02 -2.918975276816622e+03
-1.147682816999470e+03 -1.412542070038906e+02 -2.918975276816622e+03
-1.147693228705735e+03 -1.431653801820016e+02 -2.918975276816622e+03
-1.147698870537671e+03 -1.441658349763493e+02 -2.918975276816622e+03
-1.147721195378446e+03 -1.461335636771414e+02 -2.918975276816622e+03
-1.147720969888466e+03 -1.471540235305602e+02 -2.918975276816622e+03
-1.147735908174295e+03 -1.496621081771977e+02 -2.918975276816622e+03
-1.147736989347854e+03 -1.503642276933816e+02 -2.918975276816622e+03
-1.147756610543859e+03 -1.520543416684551e+02 -2.918975276816622e+03
-1.147759693578617e+03 -1.540308575699276e+02 -2.918975276816622e+03
-1.147800343083775e+03 -1.601504185954015e+02 -2.918975276816622e+03
-1.147802414621867e+03 -1.612038558177814e+02 -2.918975276816622e+03
-1.147817337325761e+03 -1.632600846234317e+02 -2.918975276816622e+03
-1.147821503541708e+03 -1.647768100065552e+02 -2.918975276816622e+03
-1.147856522399034e+03 -1.723253667187963e+02 -2.918975276816622e+03
-1.147868926033118e+03 -1.756684639402684e+02 -2.918975276816622e+03
-1.147884477045665e+03 -1.783099077421370e+02 -2.918975276816622e+03
-1.147890471040330e+03 -1.802146263616825e+02 -2.918975276816622e+03
-1.147881470807603e+03 -1.812768639336918e+02 -2.918975276816622e+03
-1.147896473609837e+03 -1.831505820683651e+02 -2.918975276816622e+03
-1.147909765694041e+03 -1.847133386958089e+02 -2.918975276816622e+03
-1.147923208647490e+03 -1.894708729260824e+02 -2.918975276816622e+03
-1.147886725301536e+03 -1.900162854321582e+02 -2.918975276816622e+03
-1.147907747804629e+03 -1.919467951131505e+02 -2.918975276816622e+03
-1.147896997359539e+03 -1.939011163007536e+02 -2.918975276816622e+03
-1.147926760956885e+03 -1.942956356932836e+02 -2.918975276816622e+03
-1.147880218457462e+03 -1.960519204754607e+02 -2.918975276816622e+03
-1.147901842445896e+03 -2.000945470307607e+02 -2.918975276816622e+03
-1.147848888865222e+03 -2.010848800424667e+02 -2.918975276816622e+03
-1.147901188430901e+03 -2.031445766210650e+02 -2.918975276816622e+03
-1.147833958917281e+03 -2.041352239719215e+02 -2.918975276816622e+03
-1.147882499420808e+03 -2.060058024880022e+02 -2.918975276816622e+03
-1.147809208224029e+03 -2.071012025014776e+02 -2.918975276816622e+03
-1.147841775083398e+03 -2.096399663182038e+02 -2.918975276816622e+03
-1.147779957641934e+03 -2.104361012088729e+02 -2.918975276816622e+03
-1.147820223312052e+03 -2.123795130003541e+02 -2.918975276816622e+03
-1.147710109043447e+03 -2.155932250768719e+02 -2.918975276816622e+03
-1.147711324051516e+03 -2.182332356487459e+02 -2.918975276816622e+03
-1.147651093412778e+03 -2.200641977295827e+02 -2.918975276816622e+03
-1.147677446034862e+03 -2.212014410736099e+02 -2.918975276816622e+03
-1.147604229939668e+03 -2.231643615228565e+02 -2.918975276816622e+03
-1.147598903841720e+03 -2.246358985228077e+02 -2.918975276816622e+03
-1.147476782378277e+03 -2.294524000374545e+02 -2.918975276816622e+03
-1.147458269554181e+03 -2.301842366112101e+02 -2.918975276816622e+03
-1.147363152266957e+03 -2.320103662752901e+02 -2.918975276816622e+03
-1.147215255927598e+03 -2.338334081915384e+02 -2.918975276816622e+03
-1.147336456223941e+03 -2.338652451425561e+02 -2.918975276816622e+03
-1.147470737824521e+03 -2.355293093696273e+02 -2.918975276816622e+03
-1.147494833177091e+03 -2.381363903468078e+02 -2.918975276816622e+03
-1.147618073039687e+03 -2.400709710314133e+02 -2.918975276816622e+03
-1.147604942957438e+03 -2.411830263505358e+02 -2.918975276816622e+03
-1.147731956603250e+03 -2.431707685995517e+02 -2.918975276816622e+03
-1.147678807584580e+03 -2.444853300011928e+02 -2.918975276816622e+03
-1.147825473339915e+03 -2.470409072905537e+02 -2.918975276816622e+03
-1.147896132429549e+03 -2.470552002312083e+02 -2.918975276816622e+03
-1.147850971029513e+03 -2.497672383932220e+02 -2.918975276816622e+03
-1.147798061731539e+03 -2.508512466881976e+02 -2.918975276816622e+03
-1.147798474858362e+03 -2.516886096750941e+02 -2.918975276816622e+03
-1.147814808980215e+03 -2.538526461470259e+02 -2.918975276816622e+03
-1.147792047772121e+03 -2.552310064477327e+02 -2.918975276816622e+03
-1.147785090903206e+03 -2.574830776116644e+02 -2.918975276816622e+03
-1.147815391235741e+03 -2.577262679225923e+02 -2.918975276816622e+03
-1.147820719554032e+03 -2.601526183502601e+02 -2.918975276816622e+03
-1.147807797477723e+03 -2.609430228736417e+02 -2.918975276816622e+03
-1.147810985712910e+03 -2.634031141178227e+02 -2.918975276816622e+03
-1.147827246706604e+03 -2.661362831971881e+02 -2.918975276816622e+03
-1.147839724329819e+03 -2.710889380632548e+02 -2.918975276816622e+03
[...]
POINT_DATA 2855
VECTORS PK_force double
0.000000000000000e+00 0.000000000000000e+00 0.000000000000000e+00
0.000000000000000e+00 0.000000000000000e+00 0.000000000000000e+00
0.000000000000000e+00 0.000000000000000e+00 0.000000000000000e+00
0.000000000000000e+00 0.000000000000000e+00 0.000000000000000e+00
0.000000000000000e+00 0.000000000000000e+00 0.000000000000000e+00
0.000000000000000e+00 0.000000000000000e+00 0.000000000000000e+00
0.000000000000000e+00 0.000000000000000e+00 0.000000000000000e+00
0.000000000000000e+00 0.000000000000000e+00 0.000000000000000e+00
0.000000000000000e+00 0.000000000000000e+00 0.000000000000000e+00
0.000000000000000e+00 0.000000000000000e+00 0.000000000000000e+00
0.000000000000000e+00 0.000000000000000e+00 0.000000000000000e+00
0.000000000000000e+00 0.000000000000000e+00 0.000000000000000e+00
0.000000000000000e+00 0.000000000000000e+00 0.000000000000000e+00
0.000000000000000e+00 0.000000000000000e+00 0.000000000000000e+00
0.000000000000000e+00 0.000000000000000e+00 0.000000000000000e+00
0.000000000000000e+00 0.000000000000000e+00 0.000000000000000e+00
0.000000000000000e+00 0.000000000000000e+00 0.000000000000000e+00
0.000000000000000e+00 0.000000000000000e+00 0.000000000000000e+00
0.000000000000000e+00 0.000000000000000e+00 0.000000000000000e+00
0.000000000000000e+00 0.000000000000000e+00 0.000000000000000e+00
0.000000000000000e+00 0.000000000000000e+00 0.000000000000000e+00
0.000000000000000e+00 0.000000000000000e+00 0.000000000000000e+00
0.000000000000000e+00 0.000000000000000e+00 0.000000000000000e+00
0.000000000000000e+00 0.000000000000000e+00 0.000000000000000e+00
0.000000000000000e+00 0.000000000000000e+00 0.000000000000000e+00
0.000000000000000e+00 0.000000000000000e+00 0.000000000000000e+00
0.000000000000000e+00 0.000000000000000e+00 0.000000000000000e+00
0.000000000000000e+00 0.000000000000000e+00 0.000000000000000e+00
0.000000000000000e+00 0.000000000000000e+00 0.000000000000000e+00
0.000000000000000e+00 0.000000000000000e+00 0.000000000000000e+00
0.000000000000000e+00 0.000000000000000e+00 0.000000000000000e+00
0.000000000000000e+00 0.000000000000000e+00 0.000000000000000e+00
0.000000000000000e+00 0.000000000000000e+00 0.000000000000000e+00
0.000000000000000e+00 0.000000000000000e+00 0.000000000000000e+00
0.000000000000000e+00 0.000000000000000e+00 0.000000000000000e+00
0.000000000000000e+00 0.000000000000000e+00 0.000000000000000e+00
0.000000000000000e+00 0.000000000000000e+00 0.000000000000000e+00
0.000000000000000e+00 0.000000000000000e+00 0.000000000000000e+00
0.000000000000000e+00 0.000000000000000e+00 0.000000000000000e+00
0.000000000000000e+00 0.000000000000000e+00 0.000000000000000e+00
0.000000000000000e+00 0.000000000000000e+00 0.000000000000000e+00
0.000000000000000e+00 0.000000000000000e+00 0.000000000000000e+00
0.000000000000000e+00 0.000000000000000e+00 0.000000000000000e+00
0.000000000000000e+00 0.000000000000000e+00 0.000000000000000e+00
0.000000000000000e+00 0.000000000000000e+00 0.000000000000000e+00
0.000000000000000e+00 0.000000000000000e+00 0.000000000000000e+00
0.000000000000000e+00 0.000000000000000e+00 0.000000000000000e+00
0.000000000000000e+00 0.000000000000000e+00 0.000000000000000e+00
0.000000000000000e+00 0.000000000000000e+00 0.000000000000000e+00
0.000000000000000e+00 0.000000000000000e+00 0.000000000000000e+00
0.000000000000000e+00 0.000000000000000e+00 0.000000000000000e+00
0.000000000000000e+00 0.000000000000000e+00 0.000000000000000e+00
0.000000000000000e+00 0.000000000000000e+00 0.000000000000000e+00
0.000000000000000e+00 0.000000000000000e+00 0.000000000000000e+00
0.000000000000000e+00 0.000000000000000e+00 0.000000000000000e+00
0.000000000000000e+00 0.000000000000000e+00 0.000000000000000e+00
0.000000000000000e+00 0.000000000000000e+00 0.000000000000000e+00
0.000000000000000e+00 0.000000000000000e+00 0.000000000000000e+00
0.000000000000000e+00 0.000000000000000e+00 0.000000000000000e+00
0.000000000000000e+00 0.000000000000000e+00 0.000000000000000e+00
0.000000000000000e+00 0.000000000000000e+00 0.000000000000000e+00
0.000000000000000e+00 0.000000000000000e+00 0.000000000000000e+00
0.000000000000000e+00 0.000000000000000e+00 0.000000000000000e+00
0.000000000000000e+00 0.000000000000000e+00 0.000000000000000e+00
0.000000000000000e+00 0.000000000000000e+00 0.000000000000000e+00
0.000000000000000e+00 0.000000000000000e+00 0.000000000000000e+00
0.000000000000000e+00 0.000000000000000e+00 0.000000000000000e+00
0.000000000000000e+00 0.000000000000000e+00 0.000000000000000e+00
0.000000000000000e+00 0.000000000000000e+00 0.000000000000000e+00
0.000000000000000e+00 0.000000000000000e+00 0.000000000000000e+00
0.000000000000000e+00 0.000000000000000e+00 0.000000000000000e+00
0.000000000000000e+00 0.000000000000000e+00 0.000000000000000e+00
0.000000000000000e+00 0.000000000000000e+00 0.000000000000000e+00
0.000000000000000e+00 0.000000000000000e+00 0.000000000000000e+00
0.000000000000000e+00 0.000000000000000e+00 0.000000000000000e+00
0.000000000000000e+00 0.000000000000000e+00 0.000000000000000e+00
0.000000000000000e+00 0.000000000000000e+00 0.000000000000000e+00
0.000000000000000e+00 0.000000000000000e+00 0.000000000000000e+00
0.000000000000000e+00 0.000000000000000e+00 0.000000000000000e+00
0.000000000000000e+00 0.000000000000000e+00 0.000000000000000e+00
0.000000000000000e+00 0.000000000000000e+00 0.000000000000000e+00
0.000000000000000e+00 0.000000000000000e+00 0.000000000000000e+00
0.000000000000000e+00 0.000000000000000e+00 0.000000000000000e+00
0.000000000000000e+00 0.000000000000000e+00 0.000000000000000e+00
0.000000000000000e+00 0.000000000000000e+00 0.000000000000000e+00
0.000000000000000e+00 0.000000000000000e+00 0.000000000000000e+00
0.000000000000000e+00 0.000000000000000e+00 0.000000000000000e+00
0.000000000000000e+00 0.000000000000000e+00 0.000000000000000e+00
0.000000000000000e+00 0.000000000000000e+00 0.000000000000000e+00
0.000000000000000e+00 0.000000000000000e+00 0.000000000000000e+00
0.000000000000000e+00 0.000000000000000e+00 0.000000000000000e+00
0.000000000000000e+00 0.000000000000000e+00 0.000000000000000e+00
0.000000000000000e+00 0.000000000000000e+00 0.000000000000000e+00
0.000000000000000e+00 0.000000000000000e+00 0.000000000000000e+00
0.000000000000000e+00 0.000000000000000e+00 0.000000000000000e+00
0.000000000000000e+00 0.000000000000000e+00 0.000000000000000e+00
0.000000000000000e+00 0.000000000000000e+00 0.000000000000000e+00
0.000000000000000e+00 0.000000000000000e+00 0.000000000000000e+00
0.000000000000000e+00 0.000000000000000e+00 0.000000000000000e+00
0.000000000000000e+00 0.000000000000000e+00 0.000000000000000e+00
0.000000000000000e+00 0.000000000000000e+00 0.000000000000000e+00
0.000000000000000e+00 0.000000000000000e+00 0.000000000000000e+00
0.000000000000000e+00 0.000000000000000e+00 0.000000000000000e+00
0.000000000000000e+00 0.000000000000000e+00 0.000000000000000e+00
0.000000000000000e+00 0.000000000000000e+00 0.000000000000000e+00
0.000000000000000e+00 0.000000000000000e+00 0.000000000000000e+00
0.000000000000000e+00 0.000000000000000e+00 0.000000000000000e+00
0.000000000000000e+00 0.000000000000000e+00 0.000000000000000e+00
0.000000000000000e+00 0.000000000000000e+00 0.000000000000000e+00
0.000000000000000e+00 0.000000000000000e+00 0.000000000000000e+00
0.000000000000000e+00 0.000000000000000e+00 0.000000000000000e+00
0.000000000000000e+00 0.000000000000000e+00 0.000000000000000e+00
0.000000000000000e+00 0.000000000000000e+00 0.000000000000000e+00
0.000000000000000e+00 0.000000000000000e+00 0.000000000000000e+00
0.000000000000000e+00 0.000000000000000e+00 0.000000000000000e+00
0.000000000000000e+00 0.000000000000000e+00 0.000000000000000e+00
0.000000000000000e+00 0.000000000000000e+00 0.000000000000000e+00
0.000000000000000e+00 0.000000000000000e+00 0.000000000000000e+00
0.000000000000000e+00 0.000000000000000e+00 0.000000000000000e+00
0.000000000000000e+00 0.000000000000000e+00 0.000000000000000e+00
0.000000000000000e+00 0.000000000000000e+00 0.000000000000000e+00
0.000000000000000e+00 0.000000000000000e+00 0.000000000000000e+00
0.000000000000000e+00 0.000000000000000e+00 0.000000000000000e+00
0.000000000000000e+00 0.000000000000000e+00 0.000000000000000e+00
0.000000000000000e+00 0.000000000000000e+00 0.000000000000000e+00
0.000000000000000e+00 0.000000000000000e+00 0.000000000000000e+00
0.000000000000000e+00 0.000000000000000e+00 0.000000000000000e+00
0.000000000000000e+00 0.000000000000000e+00 0.000000000000000e+00
0.000000000000000e+00 0.000000000000000e+00 0.000000000000000e+00
0.000000000000000e+00 0.000000000000000e+00 0.000000000000000e+00
0.000000000000000e+00 0.000000000000000e+00 0.000000000000000e+00
0.000000000000000e+00 0.000000000000000e+00 0.000000000000000e+00
0.000000000000000e+00 0.000000000000000e+00 0.000000000000000e+00
0.000000000000000e+00 0.000000000000000e+00 0.000000000000000e+00
0.000000000000000e+00 0.000000000000000e+00 0.000000000000000e+00
0.000000000000000e+00 0.000000000000000e+00 0.000000000000000e+00
0.000000000000000e+00 0.000000000000000e+00 0.000000000000000e+00
0.000000000000000e+00 0.000000000000000e+00 0.000000000000000e+00
0.000000000000000e+00 0.000000000000000e+00 0.000000000000000e+00
0.000000000000000e+00 0.000000000000000e+00 0.000000000000000e+00
0.000000000000000e+00 0.000000000000000e+00 0.000000000000000e+00
0.000000000000000e+00 0.000000000000000e+00 0.000000000000000e+00
0.000000000000000e+00 0.000000000000000e+00 0.000000000000000e+00
0.000000000000000e+00 0.000000000000000e+00 0.000000000000000e+00
0.000000000000000e+00 0.000000000000000e+00 0.000000000000000e+00
0.000000000000000e+00 0.000000000000000e+00 0.000000000000000e+00
0.000000000000000e+00 0.000000000000000e+00 0.000000000000000e+00
0.000000000000000e+00 0.000000000000000e+00 0.000000000000000e+00
0.000000000000000e+00 0.000000000000000e+00 0.000000000000000e+00
0.000000000000000e+00 0.000000000000000e+00 0.000000000000000e+00
0.000000000000000e+00 0.000000000000000e+00 0.000000000000000e+00
0.000000000000000e+00 0.000000000000000e+00 0.000000000000000e+00
0.000000000000000e+00 0.000000000000000e+00 0.000000000000000e+00
0.000000000000000e+00 0.000000000000000e+00 0.000000000000000e+00
0.000000000000000e+00 0.000000000000000e+00 0.000000000000000e+00
0.000000000000000e+00 0.000000000000000e+00 0.000000000000000e+00
0.000000000000000e+00 0.000000000000000e+00 0.000000000000000e+00
0.000000000000000e+00 0.000000000000000e+00 0.000000000000000e+00
0.000000000000000e+00 0.000000000000000e+00 0.000000000000000e+00
0.000000000000000e+00 0.000000000000000e+00 0.000000000000000e+00
0.000000000000000e+00 0.000000000000000e+00 0.000000000000000e+00
0.000000000000000e+00 0.000000000000000e+00 0.000000000000000e+00
0.000000000000000e+00 0.000000000000000e+00 0.000000000000000e+00
0.000000000000000e+00 0.000000000000000e+00 0.000000000000000e+00
0.000000000000000e+00 0.000000000000000e+00 0.000000000000000e+00
0.000000000000000e+00 0.000000000000000e+00 0.000000000000000e+00
0.000000000000000e+00 0.000000000000000e+00 0.000000000000000e+00
0.000000000000000e+00 0.000000000000000e+00 0.000000000000000e+00
0.000000000000000e+00 0.000000000000000e+00 0.000000000000000e+00
0.000000000000000e+00 0.000000000000000e+00 0.000000000000000e+00
0.000000000000000e+00 0.000000000000000e+00 0.000000000000000e+00
0.000000000000000e+00 0.000000000000000e+00 0.000000000000000e+00
0.000000000000000e+00 0.000000000000000e+00 0.000000000000000e+00
0.000000000000000e+00 0.000000000000000e+00 0.000000000000000e+00
0.000000000000000e+00 0.000000000000000e+00 0.000000000000000e+00
0.000000000000000e+00 0.000000000000000e+00 0.000000000000000e+00
0.000000000000000e+00 0.000000000000000e+00 0.000000000000000e+00
0.000000000000000e+00 0.000000000000000e+00 0.000000000000000e+00
0.000000000000000e+00 0.000000000000000e+00 0.000000000000000e+00
0.000000000000000e+00 0.000000000000000e+00 0.000000000000000e+00
0.000000000000000e+00 0.000000000000000e+00 0.000000000000000e+00
0.000000000000000e+00 0.000000000000000e+00 0.000000000000000e+00
0.000000000000000e+00 0.000000000000000e+00 0.000000000000000e+00
0.000000000000000e+00 0.000000000000000e+00 0.000000000000000e+00
0.000000000000000e+00 0.000000000000000e+00 0.000000000000000e+00
0.000000000000000e+00 0.000000000000000e+00 0.000000000000000e+00
0.000000000000000e+00 0.000000000000000e+00 0.000000000000000e+00
0.000000000000000e+00 0.000000000000000e+00 0.000000000000000e+00
0.000000000000000e+00 0.000000000000000e+00 0.000000000000000e+00
0.000000000000000e+00 0.000000000000000e+00 0.000000000000000e+00
0.000000000000000e+00 0.000000000000000e+00 0.000000000000000e+00
0.000000000000000e+00 0.000000000000000e+00 0.000000000000000e+00
0.000000000000000e+00 0.000000000000000e+00 0.000000000000000e+00
0.000000000000000e+00 0.000000000000000e+00 0.000000000000000e+00
0.000000000000000e+00 0.000000000000000e+00 0.000000000000000e+00
0.000000000000000e+00 0.000000000000000e+00 0.000000000000000e+00
0.000000000000000e+00 0.000000000000000e+00 0.000000000000000e+00
0.000000000000000e+00 0.000000000000000e+00 0.000000000000000e+00
0.000000000000000e+00 0.000000000000000e+00 0.000000000000000e+00
0.000000000000000e+00 0.000000000000000e+00 0.000000000000000e+00
0.000000000000000e+00 0.000000000000000e+00 0.000000000000000e+00
0.000000000000000e+00 0.000000000000000e+00 0.000000000000000e+00
0.000000000000000e+00 0.000000000000000e+00 0.000000000000000e+00
0.000000000000000e+00 0.000000000000000e+00 0.000000000000000e+00
0.000000000000000e+00 0.000000000000000e+00 0.000000000000000e+00
0.000000000000000e+00 0.000000000000000e+00 0.000000000000000e+00
0.000000000000000e+00 0.000000000000000e+00 0.000000000000000e+00
0.000000000000000e+00 0.000000000000000e+00 0.000000000000000e+00
0.000000000000000e+00 0.000000000000000e+00 0.000000000000000e+00
0.000000000000000e+00 0.000000000000000e+00 0.000000000000000e+00
0.000000000000000e+00 0.000000000000000e+00 0.000000000000000e+00
0.000000000000000e+00 0.000000000000000e+00 0.000000000000000e+00
0.000000000000000e+00 0.000000000000000e+00 0.000000000000000e+00
0.000000000000000e+00 0.000000000000000e+00 0.000000000000000e+00
0.000000000000000e+00 0.000000000000000e+00 0.000000000000000e+00
0.000000000000000e+00 0.000000000000000e+00 0.000000000000000e+00
0.000000000000000e+00 0.000000000000000e+00 0.000000000000000e+00
0.000000000000000e+00 0.000000000000000e+00 0.000000000000000e+00
0.000000000000000e+00 0.000000000000000e+00 0.000000000000000e+00
0.000000000000000e+00 0.000000000000000e+00 0.000000000000000e+00
0.000000000000000e+00 0.000000000000000e+00 0.000000000000000e+00
0.000000000000000e+00 0.000000000000000e+00 0.000000000000000e+00
0.000000000000000e+00 0.000000000000000e+00 0.000000000000000e+00
0.000000000000000e+00 0.000000000000000e+00 0.000000000000000e+00
0.000000000000000e+00 0.000000000000000e+00 0.000000000000000e+00
0.000000000000000e+00 0.000000000000000e+00 0.000000000000000e+00
0.000000000000000e+00 0.000000000000000e+00 0.000000000000000e+00
0.000000000000000e+00 0.000000000000000e+00 0.000000000000000e+00
0.000000000000000e+00 0.000000000000000e+00 0.000000000000000e+00
0.000000000000000e+00 0.000000000000000e+00 0.000000000000000e+00
0.000000000000000e+00 0.000000000000000e+00 0.000000000000000e+00
0.000000000000000e+00 0.000000000000000e+00 0.000000000000000e+00
0.000000000000000e+00 0.000000000000000e+00 0.000000000000000e+00
0.000000000000000e+00 0.000000000000000e+00 0.000000000000000e+00
0.000000000000000e+00 0.000000000000000e+00 0.000000000000000e+00
0.000000000000000e+00 0.000000000000000e+00 0.000000000000000e+00
0.000000000000000e+00 0.000000000000000e+00 0.000000000000000e+00
0.000000000000000e+00 0.000000000000000e+00 0.000000000000000e+00
0.000000000000000e+00 0.000000000000000e+00 0.000000000000000e+00
0.000000000000000e+00 0.000000000000000e+00 0.000000000000000e+00
0.000000000000000e+00 0.000000000000000e+00 0.000000000000000e+00
0.000000000000000e+00 0.000000000000000e+00 0.000000000000000e+00
0.000000000000000e+00 0.000000000000000e+00 0.000000000000000e+00
0.000000000000000e+00 0.000000000000000e+00 0.000000000000000e+00
0.000000000000000e+00 0.000000000000000e+00 0.000000000000000e+00
0.000000000000000e+00 0.000000000000000e+00 0.000000000000000e+00
0.000000000000000e+00 0.000000000000000e+00 0.000000000000000e+00
0.000000000000000e+00 0.000000000000000e+00 0.000000000000000e+00
0.000000000000000e+00 0.000000000000000e+00 0.000000000000000e+00
0.000000000000000e+00 0.000000000000000e+00 0.000000000000000e+00
0.000000000000000e+00 0.000000000000000e+00 0.000000000000000e+00
0.000000000000000e+00 0.000000000000000e+00 0.000000000000000e+00
0.000000000000000e+00 0.000000000000000e+00 0.000000000000000e+00
0.000000000000000e+00 0.000000000000000e+00 0.000000000000000e+00
0.000000000000000e+00 0.000000000000000e+00 0.000000000000000e+00
0.000000000000000e+00 0.000000000000000e+00 0.000000000000000e+00
0.000000000000000e+00 0.000000000000000e+00 0.000000000000000e+00
0.000000000000000e+00 0.000000000000000e+00 0.000000000000000e+00
0.000000000000000e+00 0.000000000000000e+00 0.000000000000000e+00
0.000000000000000e+00 0.000000000000000e+00 0.000000000000000e+00
0.000000000000000e+00 0.000000000000000e+00 0.000000000000000e+00
0.000000000000000e+00 0.000000000000000e+00 0.000000000000000e+00
0.000000000000000e+00 0.000000000000000e+00 0.000000000000000e+00
0.000000000000000e+00 0.000000000000000e+00 0.000000000000000e+00
0.000000000000000e+00 0.000000000000000e+00 0.000000000000000e+00
0.000000000000000e+00 0.000000000000000e+00 0.000000000000000e+00
0.000000000000000e+00 0.000000000000000e+00 0.000000000000000e+00
0.000000000000000e+00 0.000000000000000e+00 0.000000000000000e+00
0.000000000000000e+00 0.000000000000000e+00 0.000000000000000e+00
0.000000000000000e+00 0.000000000000000e+00 0.000000000000000e+00
0.000000000000000e+00 0.000000000000000e+00 0.000000000000000e+00
0.000000000000000e+00 0.000000000000000e+00 0.000000000000000e+00
0.000000000000000e+00 0.000000000000000e+00 0.000000000000000e+00
0.000000000000000e+00 0.000000000000000e+00 0.000000000000000e+00
0.000000000000000e+00 0.000000000000000e+00 0.000000000000000e+00
0.000000000000000e+00 0.000000000000000e+00 0.000000000000000e+00
0.000000000000000e+00 0.000000000000000e+00 0.000000000000000e+00
0.000000000000000e+00 0.000000000000000e+00 0.000000000000000e+00
0.000000000000000e+00 0.000000000000000e+00 0.000000000000000e+00
0.000000000000000e+00 0.000000000000000e+00 0.000000000000000e+00
0.000000000000000e+00 0.000000000000000e+00 0.000000000000000e+00
0.000000000000000e+00 0.000000000000000e+00 0.000000000000000e+00
0.000000000000000e+00 0.000000000000000e+00 0.000000000000000e+00
0.000000000000000e+00 0.000000000000000e+00 0.000000000000000e+00
0.000000000000000e+00 0.000000000000000e+00 0.000000000000000e+00
0.000000000000000e+00 0.000000000000000e+00 0.000000000000000e+00
0.000000000000000e+00 0.000000000000000e+00 0.000000000000000e+00
0.000000000000000e+00 0.000000000000000e+00 0.000000000000000e+00
0.000000000000000e+00 0.000000000000000e+00 0.000000000000000e+00
0.000000000000000e+00 0.000000000000000e+00 0.000000000000000e+00
0.000000000000000e+00 0.000000000000000e+00 0.000000000000000e+00
0.000000000000000e+00 0.000000000000000e+00 0.000000000000000e+00
0.000000000000000e+00 0.000000000000000e+00 0.000000000000000e+00
0.000000000000000e+00 0.000000000000000e+00 0.000000000000000e+00
0.000000000000000e+00 0.000000000000000e+00 0.000000000000000e+00
0.000000000000000e+00 0.000000000000000e+00 0.000000000000000e+00
0.000000000000000e+00 0.000000000000000e+00 0.000000000000000e+00
0.000000000000000e+00 0.000000000000000e+00 0.000000000000000e+00
0.000000000000000e+00 0.000000000000000e+00 0.000000000000000e+00
0.000000000000000e+00 0.000000000000000e+00 0.000000000000000e+00
0.000000000000000e+00 0.000000000000000e+00 0.000000000000000e+00
0.000000000000000e+00 0.000000000000000e+00 0.000000000000000e+00