# vtk DataFile Version 3.0
# Dislocation lines converted from MoDELib file
ASCII
DATASET UNSTRUCTURED_GRID
POINTS 2827 double
-1.429999999999877e+00  3.863858941524650e+02 -2.918975276816622e+03
-1.429999999999897e+00 -3.863858941524674e+02 -2.918975276816622e+03
-1.429999999999897e+00  0.000000000000000e+00 -2.918975276816622e+03
-1.430000000000221e+00  0.000000000000000e+00  2.918975276816619e+03
-1.430000000000221e+00 -3.863858941524674e+02  2.918975276816619e+03
-1.430000000000201e+00  3.863858941524653e+02  2.918975276816619e+03
-1.148329949701029e+03  1.086905784060864e+00 -2.918975276816622e+03
-1.148347461123286e+03 -1.017559077663791e+00 -2.918975276816622e+03
-1.148311685658771e+03 -1.687137475842419e+00 -2.918975276816622e+03
-1.148268762451145e+03 -4.137968888385867e+00 -2.918975276816622e+03
-1.148335291802587e+03 -5.288642387449499e+00 -2.918975276816622e+03
-1.148532290974767e+03 -7.435241868795730e+00 -2.918975276816622e+03
-1.148283681203899e+03 -8.853016200241852e+00 -2.918975276816622e+03
-1.148273162014326e+03 -1.292567963206243e+01 -2.918975276816622e+03
-1.148261823938609e+03 -1.365283534332533e+01 -2.918975276816622e+03
-1.148298765567536e+03 -1.660228191274087e+01 -2.918975276816622e+03
-1.148216913677810e+03 -2.009377654334875e+01 -2.918975276816622e+03
-1.148232079343559e+03 -2.290211204362394e+01 -2.918975276816622e+03
-1.148181699186544e+03 -2.691372314428861e+01 -2.918975276816622e+03
-1.148182707808842e+03 -2.804088462923908e+01 -2.918975276816622e+03
-1.148141230701671e+03 -3.455349001810134e+01 -2.918975276816622e+03
-1.148133891645407e+03 -3.540559327108421e+01 -2.918975276816622e+03
-1.148118555256213e+03 -3.851444771842623e+01 -2.918975276816622e+03
-1.148084402034498e+03 -4.346565157851611e+01 -2.918975276816622e+03
-1.148073999118375e+03 -4.491802389625814e+01 -2.918975276816622e+03
-1.148037499013505e+03 -5.005708836275951e+01 -2.918975276816622e+03
-1.147989416098223e+03 -5.593851752113940e+01 -2.918975276816622e+03
-1.147989065418640e+03 -5.839524405290790e+01 -2.918975276816622e+03
-1.147919707760910e+03 -6.006234344395768e+01 -2.918975276816622e+03
-1.147977699606809e+03 -6.117441772544245e+01 -2.918975276816622e+03
-1.147901024436979e+03 -6.328858697099693e+01 -2.918975276816622e+03
-1.147952029815234e+03 -6.427683311738801e+01 -2.918975276816622e+03
-1.147850175661895e+03 -6.641820121135628e+01 -2.918975276816622e+03
-1.147941663930962e+03 -6.743294221870018e+01 -2.918975276816622e+03
-1.147831796461506e+03 -6.996965745350921e+01 -2.918975276816622e+03
-1.147898100668254e+03 -7.067996599892153e+01 -2.918975276816622e+03
-1.147765506852537e+03 -7.212802141938393e+01 -2.918975276816622e+03
-1.147889217634645e+03 -7.418990991194744e+01 -2.918975276816622e+03
-1.147770105038727e+03 -7.531009717802483e+01 -2.918975276816622e+03
-1.147857165174336e+03 -7.637414220969990e+01 -2.918975276816622e+03
-1.147710624613552e+03 -7.836690464854351e+01 -2.918975276816622e+03
-1.147850980364803e+03 -8.039173141698733e+01 -2.918975276816622e+03
-1.147720616452840e+03 -8.148934421560774e+01 -2.918975276816622e+03
-1.147838250621386e+03 -8.372095246044604e+01 -2.918975276816622e+03
-1.147672544600945e+03 -8.553707311099873e+01 -2.918975276816622e+03
-1.147823656059476e+03 -8.727407897826474e+01 -2.918975276816622e+03
-1.147679281020922e+03 -8.936504468269837e+01 -2.918975276816622e+03
-1.147772331178057e+03 -9.036320958484174e+01 -2.918975276816622e+03
-1.147633007252437e+03 -9.205019773661604e+01 -2.918975276816622e+03
-1.147756597112344e+03 -9.483973694677391e+01 -2.918975276816622e+03
-1.147674004258374e+03 -9.555846399140032e+01 -2.918975276816622e+03
-1.147767540841621e+03 -9.843209047416181e+01 -2.918975276816622e+03
-1.147632264149773e+03 -1.003558698338199e+02 -2.918975276816622e+03
-1.147745147191916e+03 -1.013894410364323e+02 -2.918975276816622e+03
-1.147639615790064e+03 -1.032413444966322e+02 -2.918975276816622e+03
-1.147701521005997e+03 -1.042453980342591e+02 -2.918975276816622e+03
-1.147612493289795e+03 -1.062131726663143e+02 -2.918975276816622e+03
-1.147722968093578e+03 -1.072733568432293e+02 -2.918975276816622e+03
-1.147616006715513e+03 -1.096992420257248e+02 -2.918975276816622e+03
-1.147661606687163e+03 -1.105480712721220e+02 -2.918975276816622e+03
-1.147598816963458e+03 -1.122976656232933e+02 -2.918975276816622e+03
-1.147635056066695e+03 -1.141155729285364e+02 -2.918975276816622e+03
-1.147635957959810e+03 -1.156863799138901e+02 -2.918975276816622e+03
-1.147603139715423e+03 -1.183232194026039e+02 -2.918975276816622e+03
-1.147636336234332e+03 -1.201136969670976e+02 -2.918975276816622e+03
-1.147622064297138e+03 -1.213433456531440e+02 -2.918975276816622e+03
-1.147644694714252e+03 -1.236045385784665e+02 -2.918975276816622e+03
-1.147620500697095e+03 -1.248511163666628e+02 -2.918975276816622e+03
-1.147581454812708e+03 -1.294333413148645e+02 -2.918975276816622e+03
-1.147659409884480e+03 -1.295797272615227e+02 -2.918975276816622e+03
-1.147642352223489e+03 -1.319587166113361e+02 -2.918975276816622e+03
-1.147596369961958e+03 -1.340187053226218e+02 -2.918975276816622e+03
-1.147689502494005e+03 -1.341888448000617e+02 -2.918975276816622e+03
-1.147671840315544e+03 -1.357387122084504e+02 -2.918975276816622e+03
-1.147657594647079e+03 -1.384096450836781e+02 -2.918975276816622e+03
-1.147662036823403e+03 -1.400528671667933e+02 -2.918975276816622e+03
-1.147696702184102e+03 -1.412536034971591e+02 -2.918975276816622e+03
-1.147720436789215e+03 -1.431647833606123e+02 -2.918975276816622e+03
-1.147702037202357e+03 -1.441652188514533e+02 -2.918975276816622e+03
-1.147703445108345e+03 -1.461335354767230e+02 -2.918975276816622e+03
-1.147720567772961e+03 -1.471536974970008e+02 -2.918975276816622e+03
-1.147747714267443e+03 -1.496619259260663e+02 -2.918975276816622e+03
-1.147743552499203e+03 -1.503640533919091e+02 -2.918975276816622e+03
-1.147746295063693e+03 -1.520544284336407e+02 -2.918975276816622e+03
-1.147759513809202e+03 -1.540308299774320e+02 -2.918975276816622e+03
-1.147790344486739e+03 -1.601504122235577e+02 -2.918975276816622e+03
-1.147790797628636e+03 -1.612038272269079e+02 -2.918975276816622e+03
-1.147800337214418e+03 -1.632607758909837e+02 -2.918975276816622e+03
-1.147810984612292e+03 -1.647769708548200e+02 -2.918975276816622e+03
-1.147836942173498e+03 -1.723256815531833e+02 -2.918975276816622e+03
-1.147883982770823e+03 -1.756667394517690e+02 -2.918975276816622e+03
-1.147857026108937e+03 -1.783115139320847e+02 -2.918975276816622e+03
-1.147793279528680e+03 -1.802125982124350e+02 -2.918975276816622e+03
-1.147865186516056e+03 -1.812720454609929e+02 -2.918975276816622e+03
-1.147885052377848e+03 -1.831504484125577e+02 -2.918975276816622e+03
-1.147873123904092e+03 -1.847131509776692e+02 -2.918975276816622e+03
-1.147900341393199e+03 -1.894713503715369e+02 -2.918975276816622e+03
-1.147849743860084e+03 -1.900107181257910e+02 -2.918975276816622e+03
-1.147887427234416e+03 -1.919547000840107e+02 -2.918975276816622e+03
-1.147903744247666e+03 -1.939151431612105e+02 -2.918975276816622e+03
-1.147838720417972e+03 -1.942666618252676e+02 -2.918975276816622e+03
-1.147830325134837e+03 -1.960436826789745e+02 -2.918975276816622e+03
-1.147859154807653e+03 -2.000951675338096e+02 -2.918975276816622e+03
-1.147821306366886e+03 -2.010873415765463e+02 -2.918975276816622e+03
-1.147815524576699e+03 -2.031429517408710e+02 -2.918975276816622e+03
-1.147780880904457e+03 -2.041319305740412e+02 -2.918975276816622e+03
-1.147856165712960e+03 -2.060106339853022e+02 -2.918975276816622e+03
-1.147785639696207e+03 -2.071020897330524e+02 -2.918975276816622e+03
-1.147803668219964e+03 -2.096391601984719e+02 -2.918975276816622e+03
-1.147728510335904e+03 -2.104356030721966e+02 -2.918975276816622e+03
-1.147777042542259e+03 -2.123788006115571e+02 -2.918975276816622e+03
-1.147684885434890e+03 -2.155905476384905e+02 -2.918975276816622e+03
-1.147702445878796e+03 -2.182308889740963e+02 -2.918975276816622e+03
-1.147577287154940e+03 -2.200599758095221e+02 -2.918975276816622e+03
-1.147639960729586e+03 -2.211993097206688e+02 -2.918975276816622e+03
-1.147552017884266e+03 -2.231595641358618e+02 -2.918975276816622e+03
-1.147582616205174e+03 -2.246352505514839e+02 -2.918975276816622e+03
-1.147494061408372e+03 -2.294591354389475e+02 -2.918975276816622e+03
-1.147533784072177e+03 -2.301933023362842e+02 -2.918975276816622e+03
-1.147409447141536e+03 -2.320419925727529e+02 -2.918975276816622e+03
-1.147515234630430e+03 -2.354973472698996e+02 -2.918975276816622e+03
-1.147512391351033e+03 -2.381368067938060e+02 -2.918975276816622e+03
-1.147624599868733e+03 -2.400724663428186e+02 -2.918975276816622e+03
-1.147580429537903e+03 -2.411863973558391e+02 -2.918975276816622e+03
-1.147713175156561e+03 -2.431732300735693e+02 -2.918975276816622e+03
-1.147758406442966e+03 -2.445056969504596e+02 -2.918975276816622e+03
-1.147923373680423e+03 -2.470764101302164e+02 -2.918975276816622e+03
-1.147783723563301e+03 -2.470333130246054e+02 -2.918975276816622e+03
-1.147782651440399e+03 -2.497344060278665e+02 -2.918975276816622e+03
-1.147825967753037e+03 -2.508162658299920e+02 -2.918975276816622e+03
-1.147810617787080e+03 -2.516836520759193e+02 -2.918975276816622e+03
-1.147787192251087e+03 -2.538499906165055e+02 -2.918975276816622e+03
-1.147835960678080e+03 -2.552404054138276e+02 -2.918975276816622e+03
-1.147863336538277e+03 -2.575097654083704e+02 -2.918975276816622e+03
-1.147767392827334e+03 -2.577171531880817e+02 -2.918975276816622e+03
-1.147790401335213e+03 -2.601474334006220e+02 -2.918975276816622e+03
-1.147853084746855e+03 -2.609467994420737e+02 -2.918975276816622e+03
-1.147838764447109e+03 -2.634016280191206e+02 -2.918975276816622e+03
-1.147833843473124e+03 -2.661363155757163e+02 -2.918975276816622e+03
-1.147844596815562e+03 -2.710888992632693e+02 -2.918975276816622e+03
-1.147845731493819e+03 -2.738733855544899e+02 -2.918975276816622e+03
-1.147850161237425e+03 -2.755635275495887e+02 -2.918975276816622e+03
-1.147851521988666e+03 -2.773807967471129e+02 -2.918975276816622e+03
[...]
POINT_DATA 2827
VECTORS PK_force double
0.000000000000000e+00 0.000000000000000e+00 0.000000000000000e+00
0.000000000000000e+00 0.000000000000000e+00 0.000000000000000e+00
0.000000000000000e+00 0.000000000000000e+00 0.000000000000000e+00
0.000000000000000e+00 0.000000000000000e+00 0.000000000000000e+00
0.000000000000000e+00 0.000000000000000e+00 0.000000000000000e+00
0.000000000000000e+00 0.000000000000000e+00 0.000000000000000e+00
0.000000000000000e+00 0.000000000000000e+00 0.000000000000000e+00
0.000000000000000e+00 0.000000000000000e+00 0.000000000000000e+00
0.000000000000000e+00 0.000000000000000e+00 0.000000000000000e+00
0.000000000000000e+00 0.000000000000000e+00 0.000000000000000e+00
0.000000000000000e+00 0.000000000000000e+00 0.000000000000000e+00
0.000000000000000e+00 0.000000000000000e+00 0.000000000000000e+00
0.000000000000000e+00 0.000000000000000e+00 0.000000000000000e+00
0.000000000000000e+00 0.000000000000000e+00 0.000000000000000e+00
0.000000000000000e+00 0.000000000000000e+00 0.000000000000000e+00
0.000000000000000e+00 0.000000000000000e+00 0.000000000000000e+00
0.000000000000000e+00 0.000000000000000e+00 0.000000000000000e+00
0.000000000000000e+00 0.000000000000000e+00 0.000000000000000e+00
0.000000000000000e+00 0.000000000000000e+00 0.000000000000000e+00
0.000000000000000e+00 0.000000000000000e+00 0.000000000000000e+00
0.000000000000000e+00 0.000000000000000e+00 0.000000000000000e+00
0.000000000000000e+00 0.000000000000000e+00 0.000000000000000e+00
0.000000000000000e+00 0.000000000000000e+00 0.000000000000000e+00
0.000000000000000e+00 0.000000000000000e+00 0.000000000000000e+00
0.000000000000000e+00 0.000000000000000e+00 0.000000000000000e+00
0.000000000000000e+00 0.000000000000000e+00 0.000000000000000e+00
0.000000000000000e+00 0.000000000000000e+00 0.000000000000000e+00
0.000000000000000e+00 0.000000000000000e+00 0.000000000000000e+00
0.000000000000000e+00 0.000000000000000e+00 0.000000000000000e+00
0.000000000000000e+00 0.000000000000000e+00 0.000000000000000e+00
0.000000000000000e+00 0.000000000000000e+00 0.000000000000000e+00
0.000000000000000e+00 0.000000000000000e+00 0.000000000000000e+00
0.000000000000000e+00 0.000000000000000e+00 0.000000000000000e+00
0.000000000000000e+00 0.000000000000000e+00 0.000000000000000e+00
0.000000000000000e+00 0.000000000000000e+00 0.000000000000000e+00
0.000000000000000e+00 0.000000000000000e+00 0.000000000000000e+00
0.000000000000000e+00 0.000000000000000e+00 0.000000000000000e+00
0.000000000000000e+00 0.000000000000000e+00 0.000000000000000e+00
0.000000000000000e+00 0.000000000000000e+00 0.000000000000000e+00
0.000000000000000e+00 0.000000000000000e+00 0.000000000000000e+00
0.000000000000000e+00 0.000000000000000e+00 0.000000000000000e+00
0.000000000000000e+00 0.000000000000000e+00 0.000000000000000e+00
0.000000000000000e+00 0.000000000000000e+00 0.000000000000000e+00
0.000000000000000e+00 0.000000000000000e+00 0.000000000000000e+00
0.000000000000000e+00 0.000000000000000e+00 0.000000000000000e+00
0.000000000000000e+00 0.000000000000000e+00 0.000000000000000e+00
0.000000000000000e+00 0.000000000000000e+00 0.000000000000000e+00
0.000000000000000e+00 0.000000000000000e+00 0.000000000000000e+00
0.000000000000000e+00 0.000000000000000e+00 0.000000000000000e+00
0.000000000000000e+00 0.000000000000000e+00 0.000000000000000e+00
0.000000000000000e+00 0.000000000000000e+00 0.000000000000000e+00
0.000000000000000e+00 0.000000000000000e+00 0.000000000000000e+00
0.000000000000000e+00 0.000000000000000e+00 0.000000000000000e+00
0.000000000000000e+00 0.000000000000000e+00 0.000000000000000e+00
0.000000000000000e+00 0.000000000000000e+00 0.000000000000000e+00
0.000000000000000e+00 0.000000000000000e+00 0.000000000000000e+00
0.000000000000000e+00 0.000000000000000e+00 0.000000000000000e+00
0.000000000000000e+00 0.000000000000000e+00 0.000000000000000e+00
0.000000000000000e+00 0.000000000000000e+00 0.000000000000000e+00
0.000000000000000e+00 0.000000000000000e+00 0.000000000000000e+00
0.000000000000000e+00 0.000000000000000e+00 0.000000000000000e+00
0.000000000000000e+00 0.000000000000000e+00 0.000000000000000e+00
0.000000000000000e+00 0.000000000000000e+00 0.000000000000000e+00
0.000000000000000e+00 0.000000000000000e+00 0.000000000000000e+00
0.000000000000000e+00 0.000000000000000e+00 0.000000000000000e+00
0.000000000000000e+00 0.000000000000000e+00 0.000000000000000e+00
0.000000000000000e+00 0.000000000000000e+00 0.000000000000000e+00
0.000000000000000e+00 0.000000000000000e+00 0.000000000000000e+00
0.000000000000000e+00 0.000000000000000e+00 0.000000000000000e+00
0.000000000000000e+00 0.000000000000000e+00 0.000000000000000e+00
0.000000000000000e+00 0.000000000000000e+00 0.000000000000000e+00
0.000000000000000e+00 0.000000000000000e+00 0.000000000000000e+00
0.000000000000000e+00 0.000000000000000e+00 0.000000000000000e+00
0.000000000000000e+00 0.000000000000000e+00 0.000000000000000e+00
0.000000000000000e+00 0.000000000000000e+00 0.000000000000000e+00
0.000000000000000e+00 0.000000000000000e+00 0.000000000000000e+00
0.000000000000000e+00 0.000000000000000e+00 0.000000000000000e+00
0.000000000000000e+00 0.000000000000000e+00 0.000000000000000e+00
0.000000000000000e+00 0.000000000000000e+00 0.000000000000000e+00
0.000000000000000e+00 0.000000000000000e+00 0.000000000000000e+00
0.000000000000000e+00 0.000000000000000e+00 0.000000000000000e+00
0.000000000000000e+00 0.000000000000000e+00 0.000000000000000e+00
0.000000000000000e+00 0.000000000000000e+00 0.000000000000000e+00
0.000000000000000e+00 0.000000000000000e+00 0.000000000000000e+00
0.000000000000000e+00 0.000000000000000e+00 0.000000000000000e+00
0.000000000000000e+00 0.000000000000000e+00 0.000000000000000e+00
0.000000000000000e+00 0.000000000000000e+00 0.000000000000000e+00
0.000000000000000e+00 0.000000000000000e+00 0.000000000000000e+00
0.000000000000000e+00 0.000000000000000e+00 0.000000000000000e+00
0.000000000000000e+00 0.000000000000000e+00 0.000000000000000e+00
0.000000000000000e+00 0.000000000000000e+00 0.000000000000000e+00
0.000000000000000e+00 0.000000000000000e+00 0.000000000000000e+00
0.000000000000000e+00 0.000000000000000e+00 0.000000000000000e+00
0.000000000000000e+00 0.000000000000000e+00 0.000000000000000e+00
0.000000000000000e+00 0.000000000000000e+00 0.000000000000000e+00
0.000000000000000e+00 0.000000000000000e+00 0.000000000000000e+00
0.000000000000000e+00 0.000000000000000e+00 0.000000000000000e+00
0.000000000000000e+00 0.000000000000000e+00 0.000000000000000e+00
0.000000000000000e+00 0.000000000000000e+00 0.000000000000000e+00
0.000000000000000e+00 0.000000000000000e+00 0.000000000000000e+00
0.000000000000000e+00 0.000000000000000e+00 0.000000000000000e+00
0.000000000000000e+00 0.000000000000000e+00 0.000000000000000e+00
0.000000000000000e+00 0.000000000000000e+00 0.000000000000000e+00
0.000000000000000e+00 0.000000000000000e+00 0.000000000000000e+00
0.000000000000000e+00 0.000000000000000e+00 0.000000000000000e+00
0.000000000000000e+00 0.000000000000000e+00 0.000000000000000e+00
0.000000000000000e+00 0.000000000000000e+00 0.000000000000000e+00
0.000000000000000e+00 0.000000000000000e+00 0.000000000000000e+00
0.000000000000000e+00 0.000000000000000e+00 0.000000000000000e+00
0.000000000000000e+00 0.000000000000000e+00 0.000000000000000e+00
0.000000000000000e+00 0.000000000000000e+00 0.000000000000000e+00
0.000000000000000e+00 0.000000000000000e+00 0.000000000000000e+00
0.000000000000000e+00 0.000000000000000e+00 0.000000000000000e+00
0.000000000000000e+00 0.000000000000000e+00 0.000000000000000e+00
0.000000000000000e+00 0.000000000000000e+00 0.000000000000000e+00
0.000000000000000e+00 0.000000000000000e+00 0.000000000000000e+00
0.000000000000000e+00 0.000000000000000e+00 0.000000000000000e+00
0.000000000000000e+00 0.000000000000000e+00 0.000000000000000e+00
0.000000000000000e+00 0.000000000000000e+00 0.000000000000000e+00
0.000000000000000e+00 0.000000000000000e+00 0.000000000000000e+00
0.000000000000000e+00 0.000000000000000e+00 0.000000000000000e+00
0.000000000000000e+00 0.000000000000000e+00 0.000000000000000e+00
0.000000000000000e+00 0.000000000000000e+00 0.000000000000000e+00
0.000000000000000e+00 0.000000000000000e+00 0.000000000000000e+00
0.000000000000000e+00 0.000000000000000e+00 0.000000000000000e+00
0.000000000000000e+00 0.000000000000000e+00 0.000000000000000e+00
0.000000000000000e+00 0.000000000000000e+00 0.000000000000000e+00
0.000000000000000e+00 0.000000000000000e+00 0.000000000000000e+00
0.000000000000000e+00 0.000000000000000e+00 0.000000000000000e+00
0.000000000000000e+00 0.000000000000000e+00 0.000000000000000e+00
0.000000000000000e+00 0.000000000000000e+00 0.000000000000000e+00
0.000000000000000e+00 0.000000000000000e+00 0.000000000000000e+00
0.000000000000000e+00 0.000000000000000e+00 0.000000000000000e+00
0.000000000000000e+00 0.000000000000000e+00 0.000000000000000e+00
0.000000000000000e+00 0.000000000000000e+00 0.000000000000000e+00
0.000000000000000e+00 0.000000000000000e+00 0.000000000000000e+00
0.000000000000000e+00 0.000000000000000e+00 0.000000000000000e+00
0.000000000000000e+00 0.000000000000000e+00 0.000000000000000e+00
0.000000000000000e+00 0.000000000000000e+00 0.000000000000000e+00
0.000000000000000e+00 0.000000000000000e+00 0.000000000000000e+00
0.000000000000000e+00 0.000000000000000e+00 0.000000000000000e+00
0.000000000000000e+00 0.000000000000000e+00 0.000000000000000e+00
0.000000000000000e+00 0.000000000000000e+00 0.000000000000000e+00
0.000000000000000e+00 0.000000000000000e+00 0.000000000000000e+00
0.000000000000000e+00 0.000000000000000e+00 0.000000000000000e+00
0.000000000000000e+00 0.000000000000000e+00 0.000000000000000e+00
0.000000000000000e+00 0.000000000000000e+00 0.000000000000000e+00
0.000000000000000e+00 0.000000000000000e+00 0.000000000000000e+00
0.000000000000000e+00 0.000000000000000e+00 0.000000000000000e+00
0.000000000000000e+00 0.000000000000000e+00 0.000000000000000e+00
0.000000000000000e+00 0.000000000000000e+00 0.000000000000000e+00
0.000000000000000e+00 0.000000000000000e+00 0.000000000000000e+00
0.000000000000000e+00 0.000000000000000e+00 0.000000000000000e+00
0.000000000000000e+00 0.000000000000000e+00 0.000000000000000e+00
0.000000000000000e+00 0.000000000000000e+00 0.000000000000000e+00
0.000000000000000e+00 0.000000000000000e+00 0.000000000000000e+00
0.000000000000000e+00 0.000000000000000e+00 0.000000000000000e+00
0.000000000000000e+00 0.000000000000000e+00 0.000000000000000e+00
0.000000000000000e+00 0.000000000000000e+00 0.000000000000000e+00
0.000000000000000e+00 0.000000000000000e+00 0.000000000000000e+00
0.000000000000000e+00 0.000000000000000e+00 0.000000000000000e+00
0.000000000000000e+00 0.000000000000000e+00 0.000000000000000e+00
0.000000000000000e+00 0.000000000000000e+00 0.000000000000000e+00
0.000000000000000e+00 0.000000000000000e+00 0.000000000000000e+00
0.000000000000000e+00 0.000000000000000e+00 0.000000000000000e+00
0.000000000000000e+00 0.000000000000000e+00 0.000000000000000e+00
0.000000000000000e+00 0.000000000000000e+00 0.000000000000000e+00
0.000000000000000e+00 0.000000000000000e+00 0.000000000000000e+00
0.000000000000000e+00 0.000000000000000e+00 0.000000000000000e+00
0.000000000000000e+00 0.000000000000000e+00 0.000000000000000e+00
0.000000000000000e+00 0.000000000000000e+00 0.000000000000000e+00
0.000000000000000e+00 0.000000000000000e+00 0.000000000000000e+00
0.000000000000000e+00 0.000000000000000e+00 0.000000000000000e+00
0.000000000000000e+00 0.000000000000000e+00 0.000000000000000e+00
0.000000000000000e+00 0.000000000000000e+00 0.000000000000000e+00
0.000000000000000e+00 0.000000000000000e+00 0.000000000000000e+00
0.000000000000000e+00 0.000000000000000e+00 0.000000000000000e+00
0.000000000000000e+00 0.000000000000000e+00 0.000000000000000e+00
0.000000000000000e+00 0.000000000000000e+00 0.000000000000000e+00
0.000000000000000e+00 0.000000000000000e+00 0.000000000000000e+00
0.000000000000000e+00 0.000000000000000e+00 0.000000000000000e+00
0.000000000000000e+00 0.000000000000000e+00 0.000000000000000e+00
0.000000000000000e+00 0.000000000000000e+00 0.000000000000000e+00
0.000000000000000e+00 0.000000000000000e+00 0.000000000000000e+00
0.000000000000000e+00 0.000000000000000e+00 0.000000000000000e+00
0.000000000000000e+00 0.000000000000000e+00 0.000000000000000e+00
0.000000000000000e+00 0.000000000000000e+00 0.000000000000000e+00
0.000000000000000e+00 0.000000000000000e+00 0.000000000000000e+00
0.000000000000000e+00 0.000000000000000e+00 0.000000000000000e+00
0.000000000000000e+00 0.000000000000000e+00 0.000000000000000e+00
0.000000000000000e+00 0.000000000000000e+00 0.000000000000000e+00
0.000000000000000e+00 0.000000000000000e+00 0.000000000000000e+00
0.000000000000000e+00 0.000000000000000e+00 0.000000000000000e+00
0.000000000000000e+00 0.000000000000000e+00 0.000000000000000e+00
0.000000000000000e+00 0.000000000000000e+00 0.000000000000000e+00
0.000000000000000e+00 0.000000000000000e+00 0.000000000000000e+00
0.000000000000000e+00 0.000000000000000e+00 0.000000000000000e+00
0.000000000000000e+00 0.000000000000000e+00 0.000000000000000e+00
0.000000000000000e+00 0.000000000000000e+00 0.000000000000000e+00
0.000000000000000e+00 0.000000000000000e+00 0.000000000000000e+00
0.000000000000000e+00 0.000000000000000e+00 0.000000000000000e+00
0.000000000000000e+00 0.000000000000000e+00 0.000000000000000e+00
0.000000000000000e+00 0.000000000000000e+00 0.000000000000000e+00
0.000000000000000e+00 0.000000000000000e+00 0.000000000000000e+00
0.000000000000000e+00 0.000000000000000e+00 0.000000000000000e+00
0.000000000000000e+00 0.000000000000000e+00 0.000000000000000e+00
0.000000000000000e+00 0.000000000000000e+00 0.000000000000000e+00
0.000000000000000e+00 0.000000000000000e+00 0.000000000000000e+00
0.000000000000000e+00 0.000000000000000e+00 0.000000000000000e+00
0.000000000000000e+00 0.000000000000000e+00 0.000000000000000e+00
0.000000000000000e+00 0.000000000000000e+00 0.000000000000000e+00
0.000000000000000e+00 0.000000000000000e+00 0.000000000000000e+00
0.000000000000000e+00 0.000000000000000e+00 0.000000000000000e+00
0.000000000000000e+00 0.000000000000000e+00 0.000000000000000e+00
0.000000000000000e+00 0.000000000000000e+00 0.000000000000000e+00
0.000000000000000e+00 0.000000000000000e+00 0.000000000000000e+00
0.000000000000000e+00 0.000000000000000e+00 0.000000000000000e+00
0.000000000000000e+00 0.000000000000000e+00 0.000000000000000e+00
0.000000000000000e+00 0.000000000000000e+00 0.000000000000000e+00
0.000000000000000e+00 0.000000000000000e+00 0.000000000000000e+00
0.000000000000000e+00 0.000000000000000e+00 0.000000000000000e+00
0.000000000000000e+00 0.000000000000000e+00 0.000000000000000e+00
0.000000000000000e+00 0.000000000000000e+00 0.000000000000000e+00
0.000000000000000e+00 0.000000000000000e+00 0.000000000000000e+00
0.000000000000000e+00 0.000000000000000e+00 0.000000000000000e+00
0.000000000000000e+00 0.000000000000000e+00 0.000000000000000e+00
0.000000000000000e+00 0.000000000000000e+00 0.000000000000000e+00
0.000000000000000e+00 0.000000000000000e+00 0.000000000000000e+00
0.000000000000000e+00 0.000000000000000e+00 0.000000000000000e+00
0.000000000000000e+00 0.000000000000000e+00 0.000000000000000e+00
0.000000000000000e+00 0.000000000000000e+00 0.000000000000000e+00
0.000000000000000e+00 0.000000000000000e+00 0.000000000000000e+00
0.000000000000000e+00 0.000000000000000e+00 0.000000000000000e+00
0.000000000000000e+00 0.000000000000000e+00 0.000000000000000e+00
0.000000000000000e+00 0.000000000000000e+00 0.000000000000000e+00
0.000000000000000e+00 0.000000000000000e+00 0.000000000000000e+00
0.000000000000000e+00 0.000000000000000e+00 0.000000000000000e+00
0.000000000000000e+00 0.000000000000000e+00 0.000000000000000e+00
0.000000000000000e+00 0.000000000000000e+00 0.000000000000000e+00
0.000000000000000e+00 0.000000000000000e+00 0.000000000000000e+00
0.000000000000000e+00 0.000000000000000e+00 0.000000000000000e+00
0.000000000000000e+00 0.000000000000000e+00 0.000000000000000e+00
0.000000000000000e+00 0.000000000000000e+00 0.000000000000000e+00
0.000000000000000e+00 0.000000000000000e+00 0.000000000000000e+00
0.000000000000000e+00 0.000000000000000e+00 0.000000000000000e+00
0.000000000000000e+00 0.000000000000000e+00 0.000000000000000e+00
0.000000000000000e+00 0.000000000000000e+00 0.000000000000000e+00
0.000000000000000e+00 0.000000000000000e+00 0.000000000000000e+00
0.000000000000000e+00 0.000000000000000e+00 0.000000000000000e+00
0.000000000000000e+00 0.000000000000000e+00 0.000000000000000e+00
0.000000000000000e+00 0.000000000000000e+00 0.000000000000000e+00
0.000000000000000e+00 0.000000000000000e+00 0.000000000000000e+00
0.000000000000000e+00 0.000000000000000e+00 0.000000000000000e+00
0.000000000000000e+00 0.000000000000000e+00 0.000000000000000e+00
0.000000000000000e+00 0.000000000000000e+00 0.000000000000000e+00
0.000000000000000e+00 0.000000000000000e+00 0.000000000000000e+00
0.000000000000000e+00 0.000000000000000e+00 0.000000000000000e+00
0.000000000000000e+00 0.000000000000000e+00 0.000000000000000e+00
0.000000000000000e+00 0.000000000000000e+00 0.000000000000000e+00
0.000000000000000e+00 0.000000000000000e+00 0.000000000000000e+00
0.000000000000000e+00 0.000000000000000e+00 0.000000000000000e+00
0.000000000000000e+00 0.000000000000000e+00 0.000000000000000e+00
0.000000000000000e+00 0.000000000000000e+00 0.000000000000000e+00
0.000000000000000e+00 0.000000000000000e+00 0.000000000000000e+00
0.000000000000000e+00 0.000000000000000e+00 0.000000000000000e+00
0.000000000000000e+00 0.000000000000000e+00 0.000000000000000e+00
0.000000000000000e+00 0.000000000000000e+00 0.000000000000000e+00
0.000000000000000e+00 0.000000000000000e+00 0.000000000000000e+00
0.000000000000000e+00 0.000000000000000e+00 0.000000000000000e+00
0.000000000000000e+00 0.000000000000000e+00 0.000000000000000e+00
0.000000000000000e+00 0.000000000000000e+00 0.000000000000000e+00
0.000000000000000e+00 0.000000000000000e+00 0.000000000000000e+00
0.000000000000000e+00 0.000000000000000e+00 0.000000000000000e+00
0.000000000000000e+00 0.000000000000000e+00 0.000000000000000e+00
0.000000000000000e+00 0.000000000000000e+00 0.000000000000000e+00
0.000000000000000e+00 0.000000000000000e+00 0.000000000000000e+00
0.000000000000000e+00 0.000000000000000e+00 0.000000000000000e+00
0.000000000000000e+00 0.000000000000000e+00 0.000000000000000e+00
0.000000000000000e+00 0.000000000000000e+00 0.000000000000000e+00
0.000000000000000e+00 0.000000000000000e+00 0.000000000000000e+00
0.000000000000000e+00 0.000000000000000e+00 0.000000000000000e+00
0.000000000000000e+00 0.000000000000000e+00 0.000000000000000e+00
0.000000000000000e+00 0.000000000000000e+00 0.000000000000000e+00
0.000000000000000e+00 0.000000000000000e+00 0.000000000000000e+00
0.000000000000000e+00 0.000000000000000e+00 0.000000000000000e+00
0.000000000000000e+00 0.000000000000000e+00 0.000000000000000e+00
0.000000000000000e+00 0.000000000000000e+00 0.000000000000000e+00
0.000000000000000e+00 0.000000000000000e+00 0.000000000000000e+00
0.000000000000000e+00 0.000000000000000e+00 0.000000000000000e+00
0.000000000000000e+00 0.000000000000000e+00 0.000000000000000e+00
0.000000000000000e+00 0.000000000000000e+00 0.000000000000000e+00
0.000000000000000e+00 0.000000000000000e+00 0.000000000000000e+00
0.000000000000000e+00 0.000000000000000e+00 0.000000000000000e+00
0.000000000000000e+00 0.000000000000000e+00 0.000000000000000e+00
0.000000000000000e+00 0.000000000000000e+00 0.000000000000000e+00
0.000000000000000e+00 0.000000000000000e+00 0.000000000000000e+00
0.000000000000000e+00 0.000000000000000e+00 0.000000000000000e+00
0.000000000000000e+00 0.000000000000000e+00 0.000000000000000e+00
0.000000000000000e+00 0.000000000000000e+00 0.000000000000000e+00
0.000000000000000e+00 0.000000000000000e+00 0.000000000000000e+00
0.000000000000000e+00 0.000000000000000e+00 0.000000000000000e+00
0.000000000000000e+00 0.000000000000000e+00 0.000000000000000e+00