# vtk DataFile Version 3.0
# Dislocation lines converted from MoDELib file
ASCII
DATASET UNSTRUCTURED_GRID
POINTS 2927 double
-1.429999999999877e+00  3.863858941524650e+02 -2.918975276816622e+03
-1.429999999999897e+00 -3.863858941524674e+02 -2.918975276816622e+03
-1.429999999999897e+00  0.000000000000000e+00 -2.918975276816622e+03
-1.430000000000221e+00  0.000000000000000e+00  2.918975276816619e+03
-1.430000000000221e+00 -3.863858941524674e+02  2.918975276816619e+03
-1.430000000000201e+00  3.863858941524653e+02  2.918975276816619e+03
-1.148491538357658e+03  1.104443470879694e+00 -2.918975276816622e+03
-1.148498901968137e+03 -1.072244572110742e+00 -2.918975276816622e+03
-1.148493060671050e+03 -1.747731847984187e+00 -2.918975276816622e+03
-1.148486114076259e+03 -3.937632660375351e+00 -2.918975276816622e+03
-1.148475181527269e+03 -5.247979688128172e+00 -2.918975276816622e+03
-1.148477505587946e+03 -6.323614699029799e+00 -2.918975276816622e+03
-1.148451853344790e+03 -8.209478061774194e+00 -2.918975276816622e+03
-1.148409740855559e+03 -1.298764769176223e+01 -2.918975276816622e+03
-1.148397187337408e+03 -1.365766336876309e+01 -2.918975276816622e+03
-1.148386820306207e+03 -1.661192053717461e+01 -2.918975276816622e+03
-1.148311775356907e+03 -2.009805001027578e+01 -2.918975276816622e+03
-1.148315004033643e+03 -2.290239577932086e+01 -2.918975276816622e+03
-1.148223855311491e+03 -2.692044903354698e+01 -2.918975276816622e+03
-1.148217041421602e+03 -2.804410948597219e+01 -2.918975276816622e+03
-1.148113538548573e+03 -3.458649648625345e+01 -2.918975276816622e+03
-1.148100358375286e+03 -3.542723421214440e+01 -2.918975276816622e+03
-1.148054225111788e+03 -3.852472674923689e+01 -2.918975276816622e+03
-1.148232620280338e+03 -4.317416895930699e+01 -2.918975276816622e+03
-1.147781266377440e+03 -4.502277272418497e+01 -2.918975276816622e+03
-1.148683793631698e+03 -5.000978249409945e+01 -2.918975276816622e+03
-1.147948061742826e+03 -5.572143460114394e+01 -2.918975276816622e+03
-1.147909227843855e+03 -5.841047161087553e+01 -2.918975276816622e+03
-1.147803915097397e+03 -6.010857313873407e+01 -2.918975276816622e+03
-1.147892958476455e+03 -6.131033868151223e+01 -2.918975276816622e+03
-1.147778905462006e+03 -6.331966376165762e+01 -2.918975276816622e+03
-1.147898462088235e+03 -6.434930889505787e+01 -2.918975276816622e+03
-1.147758758454423e+03 -6.638228618326957e+01 -2.918975276816622e+03
-1.147888732558481e+03 -6.740976379467648e+01 -2.918975276816622e+03
-1.147783293443825e+03 -6.993984409057953e+01 -2.918975276816622e+03
-1.147869504543427e+03 -7.061757460242949e+01 -2.918975276816622e+03
-1.147744317511375e+03 -7.212528221862195e+01 -2.918975276816622e+03
-1.147851974921797e+03 -7.417579710806049e+01 -2.918975276816622e+03
-1.147708703227588e+03 -7.530784687856061e+01 -2.918975276816622e+03
-1.147841179317516e+03 -7.637227109007944e+01 -2.918975276816622e+03
-1.147705785762082e+03 -7.836498358680980e+01 -2.918975276816622e+03
-1.147836728962867e+03 -8.037847837626309e+01 -2.918975276816622e+03
-1.147658821557892e+03 -8.147364781298185e+01 -2.918975276816622e+03
-1.147830590062109e+03 -8.371768652167970e+01 -2.918975276816622e+03
-1.147669837927920e+03 -8.523734971010728e+01 -2.918975276816622e+03
-1.147872814984411e+03 -8.729401555176625e+01 -2.918975276816622e+03
-1.147608433300233e+03 -8.949727814615974e+01 -2.918975276816622e+03
-1.147700992594991e+03 -9.038717233466380e+01 -2.918975276816622e+03
-1.147596796142581e+03 -9.210437423600533e+01 -2.918975276816622e+03
-1.147711916895763e+03 -9.485412393857794e+01 -2.918975276816622e+03
-1.147629863743948e+03 -9.555396005131549e+01 -2.918975276816622e+03
-1.147705561554042e+03 -9.845235510900365e+01 -2.918975276816622e+03
-1.147610150878126e+03 -1.003575468997831e+02 -2.918975276816622e+03
-1.147686007092497e+03 -1.013944312529531e+02 -2.918975276816622e+03
-1.147593092997917e+03 -1.032480100371600e+02 -2.918975276816622e+03
-1.147667277639961e+03 -1.042506089696545e+02 -2.918975276816622e+03
-1.147571555539907e+03 -1.062307989678825e+02 -2.918975276816622e+03
-1.147646093497021e+03 -1.072793921855255e+02 -2.918975276816622e+03
-1.147551766237449e+03 -1.097275667186237e+02 -2.918975276816622e+03
-1.147612266053472e+03 -1.105306349862143e+02 -2.918975276816622e+03
-1.147523976365132e+03 -1.122509113750307e+02 -2.918975276816622e+03
-1.147574825136255e+03 -1.141192879519696e+02 -2.918975276816622e+03
-1.147556951516831e+03 -1.141933653564058e+02 -2.918975276816622e+03
-1.147611551188484e+03 -1.157489245466514e+02 -2.918975276816622e+03
-1.147558721660709e+03 -1.183277295812754e+02 -2.918975276816622e+03
-1.147594869273176e+03 -1.201193493086177e+02 -2.918975276816622e+03
-1.147564262176254e+03 -1.213444221523157e+02 -2.918975276816622e+03
-1.147584182931086e+03 -1.236100863980910e+02 -2.918975276816622e+03
-1.147572654385504e+03 -1.248561344406215e+02 -2.918975276816622e+03
-1.147561187356740e+03 -1.295019841783559e+02 -2.918975276816622e+03
-1.147552486321282e+03 -1.297649147173321e+02 -2.918975276816622e+03
-1.147589697793309e+03 -1.319569447189688e+02 -2.918975276816622e+03
-1.147584481218707e+03 -1.340787328957849e+02 -2.918975276816622e+03
-1.147593542873080e+03 -1.343775952362804e+02 -2.918975276816622e+03
-1.147610185660392e+03 -1.357585123929973e+02 -2.918975276816622e+03
-1.147640493807921e+03 -1.383909836930983e+02 -2.918975276816622e+03
-1.147656660528931e+03 -1.400695461322487e+02 -2.918975276816622e+03
-1.147665466634708e+03 -1.412835796800537e+02 -2.918975276816622e+03
-1.147687618756852e+03 -1.431669620504192e+02 -2.918975276816622e+03
-1.147692458071609e+03 -1.441691364535008e+02 -2.918975276816622e+03
-1.147715744219849e+03 -1.461335531249360e+02 -2.918975276816622e+03
-1.147713240141444e+03 -1.471525322757364e+02 -2.918975276816622e+03
-1.147747520666750e+03 -1.496667085523682e+02 -2.918975276816622e+03
-1.147738478979694e+03 -1.503672297090226e+02 -2.918975276816622e+03
-1.147771825390642e+03 -1.520368423783696e+02 -2.918975276816622e+03
-1.147760597331066e+03 -1.540277057374799e+02 -2.918975276816622e+03
-1.147764057246893e+03 -1.540602785430665e+02 -2.918975276816622e+03
-1.147770361359120e+03 -1.559568517675068e+02 -2.918975276816622e+03
-1.147826072427892e+03 -1.601700234917533e+02 -2.918975276816622e+03
-1.147823971760298e+03 -1.612247518618227e+02 -2.918975276816622e+03
-1.147851053140153e+03 -1.631883053202363e+02 -2.918975276816622e+03
-1.147859794710855e+03 -1.647264524810847e+02 -2.918975276816622e+03
-1.147916393631190e+03 -1.723224102879651e+02 -2.918975276816622e+03
-1.147933592479772e+03 -1.756642651785762e+02 -2.918975276816622e+03
-1.147956091004485e+03 -1.783163069409355e+02 -2.918975276816622e+03
-1.147961088774344e+03 -1.802168613978504e+02 -2.918975276816622e+03
-1.147965539247970e+03 -1.812742609603799e+02 -2.918975276816622e+03
-1.147966621067734e+03 -1.831431327919503e+02 -2.918975276816622e+03
-1.147980030063122e+03 -1.847068962816703e+02 -2.918975276816622e+03
-1.147994139318537e+03 -1.894824530026035e+02 -2.918975276816622e+03
-1.147988393807775e+03 -1.900462884171696e+02 -2.918975276816622e+03
-1.148019505636373e+03 -1.919408794231163e+02 -2.918975276816622e+03
-1.147994079568396e+03 -1.938918551285078e+02 -2.918975276816622e+03
-1.148013521296246e+03 -1.942847618771276e+02 -2.918975276816622e+03
-1.147985139897004e+03 -1.960463179264393e+02 -2.918975276816622e+03
-1.147997634394543e+03 -2.000661080198570e+02 -2.918975276816622e+03
-1.147959604704268e+03 -2.010840147525461e+02 -2.918975276816622e+03
-1.148004624618268e+03 -2.030832173416572e+02 -2.918975276816622e+03
-1.147945052040492e+03 -2.040551956030760e+02 -2.918975276816622e+03
-1.147987072383704e+03 -2.060301918342495e+02 -2.918975276816622e+03
-1.147922749582083e+03 -2.070777112413001e+02 -2.918975276816622e+03
-1.147940290517269e+03 -2.096234679355882e+02 -2.918975276816622e+03
-1.147876396366619e+03 -2.103975952621275e+02 -2.918975276816622e+03
-1.147914315251747e+03 -2.124142865632132e+02 -2.918975276816622e+03
-1.147783182013060e+03 -2.155975731431431e+02 -2.918975276816622e+03
-1.147798759319212e+03 -2.182374055690809e+02 -2.918975276816622e+03
-1.147708207331366e+03 -2.200876900635017e+02 -2.918975276816622e+03
-1.147724546656893e+03 -2.212181318691165e+02 -2.918975276816622e+03
-1.147632145597429e+03 -2.231384832985377e+02 -2.918975276816622e+03
-1.147622260003145e+03 -2.246385208464511e+02 -2.918975276816622e+03
-1.147452999626811e+03 -2.294508186747716e+02 -2.918975276816622e+03
-1.147411848715321e+03 -2.301845102062804e+02 -2.918975276816622e+03
-1.147357454151378e+03 -2.319880505375032e+02 -2.918975276816622e+03
-1.147235203635996e+03 -2.337701948519243e+02 -2.918975276816622e+03
-1.147206971905059e+03 -2.339077547561309e+02 -2.918975276816622e+03
-1.147372316986131e+03 -2.355647198286179e+02 -2.918975276816622e+03
-1.147451252272552e+03 -2.381176238664244e+02 -2.918975276816622e+03
-1.147569064903646e+03 -2.401089623544659e+02 -2.918975276816622e+03
-1.147546098409534e+03 -2.411927858272685e+02 -2.918975276816622e+03
-1.147689956885182e+03 -2.431553380578036e+02 -2.918975276816622e+03
-1.147678642619373e+03 -2.444820704339331e+02 -2.918975276816622e+03
-1.147855602969703e+03 -2.470207166121112e+02 -2.918975276816622e+03
-1.147839553966996e+03 -2.470603402515224e+02 -2.918975276816622e+03
-1.147812003277026e+03 -2.497770487699789e+02 -2.918975276816622e+03
-1.147814554600150e+03 -2.508634411440440e+02 -2.918975276816622e+03
-1.147794618006319e+03 -2.516954539401819e+02 -2.918975276816622e+03
-1.147770160919555e+03 -2.538523603564466e+02 -2.918975276816622e+03
-1.147771075382083e+03 -2.552298951844285e+02 -2.918975276816622e+03
-1.147772634319028e+03 -2.574734700081316e+02 -2.918975276816622e+03
-1.147777602986293e+03 -2.577193654315822e+02 -2.918975276816622e+03
-1.147779186212991e+03 -2.601532700654462e+02 -2.918975276816622e+03
-1.147770987723884e+03 -2.609423497095856e+02 -2.918975276816622e+03
-1.147788716355695e+03 -2.634032755711792e+02 -2.918975276816622e+03
[...]
POINT_DATA 2927
VECTORS PK_force double
0.000000000000000e+00 0.000000000000000e+00 0.000000000000000e+00
0.000000000000000e+00 0.000000000000000e+00 0.000000000000000e+00
0.000000000000000e+00 0.000000000000000e+00 0.000000000000000e+00
0.000000000000000e+00 0.000000000000000e+00 0.000000000000000e+00
0.000000000000000e+00 0.000000000000000e+00 0.000000000000000e+00
0.000000000000000e+00 0.000000000000000e+00 0.000000000000000e+00
0.000000000000000e+00 0.000000000000000e+00 0.000000000000000e+00
0.000000000000000e+00 0.000000000000000e+00 0.000000000000000e+00
0.000000000000000e+00 0.000000000000000e+00 0.000000000000000e+00
0.000000000000000e+00 0.000000000000000e+00 0.000000000000000e+00
0.000000000000000e+00 0.000000000000000e+00 0.000000000000000e+00
0.000000000000000e+00 0.000000000000000e+00 0.000000000000000e+00
0.000000000000000e+00 0.000000000000000e+00 0.000000000000000e+00
0.000000000000000e+00 0.000000000000000e+00 0.000000000000000e+00
0.000000000000000e+00 0.000000000000000e+00 0.000000000000000e+00
0.000000000000000e+00 0.000000000000000e+00 0.000000000000000e+00
0.000000000000000e+00 0.000000000000000e+00 0.000000000000000e+00
0.000000000000000e+00 0.000000000000000e+00 0.000000000000000e+00
0.000000000000000e+00 0.000000000000000e+00 0.000000000000000e+00
0.000000000000000e+00 0.000000000000000e+00 0.000000000000000e+00
0.000000000000000e+00 0.000000000000000e+00 0.000000000000000e+00
0.000000000000000e+00 0.000000000000000e+00 0.000000000000000e+00
0.000000000000000e+00 0.000000000000000e+00 0.000000000000000e+00
0.000000000000000e+00 0.000000000000000e+00 0.000000000000000e+00
0.000000000000000e+00 0.000000000000000e+00 0.000000000000000e+00
0.000000000000000e+00 0.000000000000000e+00 0.000000000000000e+00
0.000000000000000e+00 0.000000000000000e+00 0.000000000000000e+00
0.000000000000000e+00 0.000000000000000e+00 0.000000000000000e+00
0.000000000000000e+00 0.000000000000000e+00 0.000000000000000e+00
0.000000000000000e+00 0.000000000000000e+00 0.000000000000000e+00
0.000000000000000e+00 0.000000000000000e+00 0.000000000000000e+00
0.000000000000000e+00 0.000000000000000e+00 0.000000000000000e+00
0.000000000000000e+00 0.000000000000000e+00 0.000000000000000e+00
0.000000000000000e+00 0.000000000000000e+00 0.000000000000000e+00
0.000000000000000e+00 0.000000000000000e+00 0.000000000000000e+00
0.000000000000000e+00 0.000000000000000e+00 0.000000000000000e+00
0.000000000000000e+00 0.000000000000000e+00 0.000000000000000e+00
0.000000000000000e+00 0.000000000000000e+00 0.000000000000000e+00
0.000000000000000e+00 0.000000000000000e+00 0.000000000000000e+00
0.000000000000000e+00 0.000000000000000e+00 0.000000000000000e+00
0.000000000000000e+00 0.000000000000000e+00 0.000000000000000e+00
0.000000000000000e+00 0.000000000000000e+00 0.000000000000000e+00
0.000000000000000e+00 0.000000000000000e+00 0.000000000000000e+00
0.000000000000000e+00 0.000000000000000e+00 0.000000000000000e+00
0.000000000000000e+00 0.000000000000000e+00 0.000000000000000e+00
0.000000000000000e+00 0.000000000000000e+00 0.000000000000000e+00
0.000000000000000e+00 0.000000000000000e+00 0.000000000000000e+00
0.000000000000000e+00 0.000000000000000e+00 0.000000000000000e+00
0.000000000000000e+00 0.000000000000000e+00 0.000000000000000e+00
0.000000000000000e+00 0.000000000000000e+00 0.000000000000000e+00
0.000000000000000e+00 0.000000000000000e+00 0.000000000000000e+00
0.000000000000000e+00 0.000000000000000e+00 0.000000000000000e+00
0.000000000000000e+00 0.000000000000000e+00 0.000000000000000e+00
0.000000000000000e+00 0.000000000000000e+00 0.000000000000000e+00
0.000000000000000e+00 0.000000000000000e+00 0.000000000000000e+00
0.000000000000000e+00 0.000000000000000e+00 0.000000000000000e+00
0.000000000000000e+00 0.000000000000000e+00 0.000000000000000e+00
0.000000000000000e+00 0.000000000000000e+00 0.000000000000000e+00
0.000000000000000e+00 0.000000000000000e+00 0.000000000000000e+00
0.000000000000000e+00 0.000000000000000e+00 0.000000000000000e+00
0.000000000000000e+00 0.000000000000000e+00 0.000000000000000e+00
0.000000000000000e+00 0.000000000000000e+00 0.000000000000000e+00
0.000000000000000e+00 0.000000000000000e+00 0.000000000000000e+00
0.000000000000000e+00 0.000000000000000e+00 0.000000000000000e+00
0.000000000000000e+00 0.000000000000000e+00 0.000000000000000e+00
0.000000000000000e+00 0.000000000000000e+00 0.000000000000000e+00
0.000000000000000e+00 0.000000000000000e+00 0.000000000000000e+00
0.000000000000000e+00 0.000000000000000e+00 0.000000000000000e+00
0.000000000000000e+00 0.000000000000000e+00 0.000000000000000e+00
0.000000000000000e+00 0.000000000000000e+00 0.000000000000000e+00
0.000000000000000e+00 0.000000000000000e+00 0.000000000000000e+00
0.000000000000000e+00 0.000000000000000e+00 0.000000000000000e+00
0.000000000000000e+00 0.000000000000000e+00 0.000000000000000e+00
0.000000000000000e+00 0.000000000000000e+00 0.000000000000000e+00
0.000000000000000e+00 0.000000000000000e+00 0.000000000000000e+00
0.000000000000000e+00 0.000000000000000e+00 0.000000000000000e+00
0.000000000000000e+00 0.000000000000000e+00 0.000000000000000e+00
0.000000000000000e+00 0.000000000000000e+00 0.000000000000000e+00
0.000000000000000e+00 0.000000000000000e+00 0.000000000000000e+00
0.000000000000000e+00 0.000000000000000e+00 0.000000000000000e+00
0.000000000000000e+00 0.000000000000000e+00 0.000000000000000e+00
0.000000000000000e+00 0.000000000000000e+00 0.000000000000000e+00
0.000000000000000e+00 0.000000000000000e+00 0.000000000000000e+00
0.000000000000000e+00 0.000000000000000e+00 0.000000000000000e+00
0.000000000000000e+00 0.000000000000000e+00 0.000000000000000e+00
0.000000000000000e+00 0.000000000000000e+00 0.000000000000000e+00
0.000000000000000e+00 0.000000000000000e+00 0.000000000000000e+00
0.000000000000000e+00 0.000000000000000e+00 0.000000000000000e+00
0.000000000000000e+00 0.000000000000000e+00 0.000000000000000e+00
0.000000000000000e+00 0.000000000000000e+00 0.000000000000000e+00
0.000000000000000e+00 0.000000000000000e+00 0.000000000000000e+00
0.000000000000000e+00 0.000000000000000e+00 0.000000000000000e+00
0.000000000000000e+00 0.000000000000000e+00 0.000000000000000e+00
0.000000000000000e+00 0.000000000000000e+00 0.000000000000000e+00
0.000000000000000e+00 0.000000000000000e+00 0.000000000000000e+00
0.000000000000000e+00 0.000000000000000e+00 0.000000000000000e+00
0.000000000000000e+00 0.000000000000000e+00 0.000000000000000e+00
0.000000000000000e+00 0.000000000000000e+00 0.000000000000000e+00
0.000000000000000e+00 0.000000000000000e+00 0.000000000000000e+00
0.000000000000000e+00 0.000000000000000e+00 0.000000000000000e+00
0.000000000000000e+00 0.000000000000000e+00 0.000000000000000e+00
0.000000000000000e+00 0.000000000000000e+00 0.000000000000000e+00
0.000000000000000e+00 0.000000000000000e+00 0.000000000000000e+00
0.000000000000000e+00 0.000000000000000e+00 0.000000000000000e+00
0.000000000000000e+00 0.000000000000000e+00 0.000000000000000e+00
0.000000000000000e+00 0.000000000000000e+00 0.000000000000000e+00
0.000000000000000e+00 0.000000000000000e+00 0.000000000000000e+00
0.000000000000000e+00 0.000000000000000e+00 0.000000000000000e+00
0.000000000000000e+00 0.000000000000000e+00 0.000000000000000e+00
0.000000000000000e+00 0.000000000000000e+00 0.000000000000000e+00
0.000000000000000e+00 0.000000000000000e+00 0.000000000000000e+00
0.000000000000000e+00 0.000000000000000e+00 0.000000000000000e+00
0.000000000000000e+00 0.000000000000000e+00 0.000000000000000e+00
0.000000000000000e+00 0.000000000000000e+00 0.000000000000000e+00
0.000000000000000e+00 0.000000000000000e+00 0.000000000000000e+00
0.000000000000000e+00 0.000000000000000e+00 0.000000000000000e+00
0.000000000000000e+00 0.000000000000000e+00 0.000000000000000e+00
0.000000000000000e+00 0.000000000000000e+00 0.000000000000000e+00
0.000000000000000e+00 0.000000000000000e+00 0.000000000000000e+00
0.000000000000000e+00 0.000000000000000e+00 0.000000000000000e+00
0.000000000000000e+00 0.000000000000000e+00 0.000000000000000e+00
0.000000000000000e+00 0.000000000000000e+00 0.000000000000000e+00
0.000000000000000e+00 0.000000000000000e+00 0.000000000000000e+00
0.000000000000000e+00 0.000000000000000e+00 0.000000000000000e+00
0.000000000000000e+00 0.000000000000000e+00 0.000000000000000e+00
0.000000000000000e+00 0.000000000000000e+00 0.000000000000000e+00
0.000000000000000e+00 0.000000000000000e+00 0.000000000000000e+00
0.000000000000000e+00 0.000000000000000e+00 0.000000000000000e+00
0.000000000000000e+00 0.000000000000000e+00 0.000000000000000e+00
0.000000000000000e+00 0.000000000000000e+00 0.000000000000000e+00
0.000000000000000e+00 0.000000000000000e+00 0.000000000000000e+00
0.000000000000000e+00 0.000000000000000e+00 0.000000000000000e+00
0.000000000000000e+00 0.000000000000000e+00 0.000000000000000e+00
0.000000000000000e+00 0.000000000000000e+00 0.000000000000000e+00
0.000000000000000e+00 0.000000000000000e+00 0.000000000000000e+00
0.000000000000000e+00 0.000000000000000e+00 0.000000000000000e+00
0.000000000000000e+00 0.000000000000000e+00 0.000000000000000e+00
0.000000000000000e+00 0.000000000000000e+00 0.000000000000000e+00
0.000000000000000e+00 0.000000000000000e+00 0.000000000000000e+00
0.000000000000000e+00 0.000000000000000e+00 0.000000000000000e+00
0.000000000000000e+00 0.000000000000000e+00 0.000000000000000e+00
0.000000000000000e+00 0.000000000000000e+00 0.000000000000000e+00
0.000000000000000e+00 0.000000000000000e+00 0.000000000000000e+00
0.000000000000000e+00 0.000000000000000e+00 0.000000000000000e+00
0.000000000000000e+00 0.000000000000000e+00 0.000000000000000e+00
0.000000000000000e+00 0.000000000000000e+00 0.000000000000000e+00
0.000000000000000e+00 0.000000000000000e+00 0.000000000000000e+00
0.000000000000000e+00 0.000000000000000e+00 0.000000000000000e+00
0.000000000000000e+00 0.000000000000000e+00 0.000000000000000e+00
0.000000000000000e+00 0.000000000000000e+00 0.000000000000000e+00
0.000000000000000e+00 0.000000000000000e+00 0.000000000000000e+00
0.000000000000000e+00 0.000000000000000e+00 0.000000000000000e+00
0.000000000000000e+00 0.000000000000000e+00 0.000000000000000e+00
0.000000000000000e+00 0.000000000000000e+00 0.000000000000000e+00
0.000000000000000e+00 0.000000000000000e+00 0.000000000000000e+00
0.000000000000000e+00 0.000000000000000e+00 0.000000000000000e+00
0.000000000000000e+00 0.000000000000000e+00 0.000000000000000e+00
0.000000000000000e+00 0.000000000000000e+00 0.000000000000000e+00
0.000000000000000e+00 0.000000000000000e+00 0.000000000000000e+00
0.000000000000000e+00 0.000000000000000e+00 0.000000000000000e+00
0.000000000000000e+00 0.000000000000000e+00 0.000000000000000e+00
0.000000000000000e+00 0.000000000000000e+00 0.000000000000000e+00
0.000000000000000e+00 0.000000000000000e+00 0.000000000000000e+00
0.000000000000000e+00 0.000000000000000e+00 0.000000000000000e+00
0.000000000000000e+00 0.000000000000000e+00 0.000000000000000e+00
0.000000000000000e+00 0.000000000000000e+00 0.000000000000000e+00
0.000000000000000e+00 0.000000000000000e+00 0.000000000000000e+00
0.000000000000000e+00 0.000000000000000e+00 0.000000000000000e+00
0.000000000000000e+00 0.000000000000000e+00 0.000000000000000e+00
0.000000000000000e+00 0.000000000000000e+00 0.000000000000000e+00
0.000000000000000e+00 0.000000000000000e+00 0.000000000000000e+00
0.000000000000000e+00 0.000000000000000e+00 0.000000000000000e+00
0.000000000000000e+00 0.000000000000000e+00 0.000000000000000e+00
0.000000000000000e+00 0.000000000000000e+00 0.000000000000000e+00
0.000000000000000e+00 0.000000000000000e+00 0.000000000000000e+00
0.000000000000000e+00 0.000000000000000e+00 0.000000000000000e+00
0.000000000000000e+00 0.000000000000000e+00 0.000000000000000e+00
0.000000000000000e+00 0.000000000000000e+00 0.000000000000000e+00
0.000000000000000e+00 0.000000000000000e+00 0.000000000000000e+00
0.000000000000000e+00 0.000000000000000e+00 0.000000000000000e+00
0.000000000000000e+00 0.000000000000000e+00 0.000000000000000e+00
0.000000000000000e+00 0.000000000000000e+00 0.000000000000000e+00
0.000000000000000e+00 0.000000000000000e+00 0.000000000000000e+00
0.000000000000000e+00 0.000000000000000e+00 0.000000000000000e+00
0.000000000000000e+00 0.000000000000000e+00 0.000000000000000e+00
0.000000000000000e+00 0.000000000000000e+00 0.000000000000000e+00
0.000000000000000e+00 0.000000000000000e+00 0.000000000000000e+00
0.000000000000000e+00 0.000000000000000e+00 0.000000000000000e+00
0.000000000000000e+00 0.000000000000000e+00 0.000000000000000e+00
0.000000000000000e+00 0.000000000000000e+00 0.000000000000000e+00
0.000000000000000e+00 0.000000000000000e+00 0.000000000000000e+00
0.000000000000000e+00 0.000000000000000e+00 0.000000000000000e+00
0.000000000000000e+00 0.000000000000000e+00 0.000000000000000e+00
0.000000000000000e+00 0.000000000000000e+00 0.000000000000000e+00
0.000000000000000e+00 0.000000000000000e+00 0.000000000000000e+00
0.000000000000000e+00 0.000000000000000e+00 0.000000000000000e+00
0.000000000000000e+00 0.000000000000000e+00 0.000000000000000e+00
0.000000000000000e+00 0.000000000000000e+00 0.000000000000000e+00
0.000000000000000e+00 0.000000000000000e+00 0.000000000000000e+00
0.000000000000000e+00 0.000000000000000e+00 0.000000000000000e+00
0.000000000000000e+00 0.000000000000000e+00 0.000000000000000e+00
0.000000000000000e+00 0.000000000000000e+00 0.000000000000000e+00
0.000000000000000e+00 0.000000000000000e+00 0.000000000000000e+00
0.000000000000000e+00 0.000000000000000e+00 0.000000000000000e+00
0.000000000000000e+00 0.000000000000000e+00 0.000000000000000e+00
0.000000000000000e+00 0.000000000000000e+00 0.000000000000000e+00
0.000000000000000e+00 0.000000000000000e+00 0.000000000000000e+00
0.000000000000000e+00 0.000000000000000e+00 0.000000000000000e+00
0.000000000000000e+00 0.000000000000000e+00 0.000000000000000e+00
0.000000000000000e+00 0.000000000000000e+00 0.000000000000000e+00
0.000000000000000e+00 0.000000000000000e+00 0.000000000000000e+00
0.000000000000000e+00 0.000000000000000e+00 0.000000000000000e+00
0.000000000000000e+00 0.000000000000000e+00 0.000000000000000e+00
0.000000000000000e+00 0.000000000000000e+00 0.000000000000000e+00
0.000000000000000e+00 0.000000000000000e+00 0.000000000000000e+00
0.000000000000000e+00 0.000000000000000e+00 0.000000000000000e+00
0.000000000000000e+00 0.000000000000000e+00 0.000000000000000e+00
0.000000000000000e+00 0.000000000000000e+00 0.000000000000000e+00
0.000000000000000e+00 0.000000000000000e+00 0.000000000000000e+00
0.000000000000000e+00 0.000000000000000e+00 0.000000000000000e+00
0.000000000000000e+00 0.000000000000000e+00 0.000000000000000e+00
0.000000000000000e+00 0.000000000000000e+00 0.000000000000000e+00
0.000000000000000e+00 0.000000000000000e+00 0.000000000000000e+00
0.000000000000000e+00 0.000000000000000e+00 0.000000000000000e+00
0.000000000000000e+00 0.000000000000000e+00 0.000000000000000e+00
0.000000000000000e+00 0.000000000000000e+00 0.000000000000000e+00
0.000000000000000e+00 0.000000000000000e+00 0.000000000000000e+00
0.000000000000000e+00 0.000000000000000e+00 0.000000000000000e+00
0.000000000000000e+00 0.000000000000000e+00 0.000000000000000e+00
0.000000000000000e+00 0.000000000000000e+00 0.000000000000000e+00
0.000000000000000e+00 0.000000000000000e+00 0.000000000000000e+00
0.000000000000000e+00 0.000000000000000e+00 0.000000000000000e+00
0.000000000000000e+00 0.000000000000000e+00 0.000000000000000e+00
0.000000000000000e+00 0.000000000000000e+00 0.000000000000000e+00
0.000000000000000e+00 0.000000000000000e+00 0.000000000000000e+00
0.000000000000000e+00 0.000000000000000e+00 0.000000000000000e+00
0.000000000000000e+00 0.000000000000000e+00 0.000000000000000e+00
0.000000000000000e+00 0.000000000000000e+00 0.000000000000000e+00
0.000000000000000e+00 0.000000000000000e+00 0.000000000000000e+00
0.000000000000000e+00 0.000000000000000e+00 0.000000000000000e+00
0.000000000000000e+00 0.000000000000000e+00 0.000000000000000e+00
0.000000000000000e+00 0.000000000000000e+00 0.000000000000000e+00
0.000000000000000e+00 0.000000000000000e+00 0.000000000000000e+00
0.000000000000000e+00 0.000000000000000e+00 0.000000000000000e+00
0.000000000000000e+00 0.000000000000000e+00 0.000000000000000e+00
0.000000000000000e+00 0.000000000000000e+00 0.000000000000000e+00
0.000000000000000e+00 0.000000000000000e+00 0.000000000000000e+00
0.000000000000000e+00 0.000000000000000e+00 0.000000000000000e+00
0.000000000000000e+00 0.000000000000000e+00 0.000000000000000e+00
0.000000000000000e+00 0.000000000000000e+00 0.000000000000000e+00
0.000000000000000e+00 0.000000000000000e+00 0.000000000000000e+00
0.000000000000000e+00 0.000000000000000e+00 0.000000000000000e+00
0.000000000000000e+00 0.000000000000000e+00 0.000000000000000e+00
0.000000000000000e+00 0.000000000000000e+00 0.000000000000000e+00
0.000000000000000e+00 0.000000000000000e+00 0.000000000000000e+00
0.000000000000000e+00 0.000000000000000e+00 0.000000000000000e+00
0.000000000000000e+00 0.000000000000000e+00 0.000000000000000e+00
0.000000000000000e+00 0.000000000000000e+00 0.000000000000000e+00
0.000000000000000e+00 0.000000000000000e+00 0.000000000000000e+00
0.000000000000000e+00 0.000000000000000e+00 0.000000000000000e+00
0.000000000000000e+00 0.000000000000000e+00 0.000000000000000e+00
0.000000000000000e+00 0.000000000000000e+00 0.000000000000000e+00
0.000000000000000e+00 0.000000000000000e+00 0.000000000000000e+00
0.000000000000000e+00 0.000000000000000e+00 0.000000000000000e+00
0.000000000000000e+00 0.000000000000000e+00 0.000000000000000e+00
0.000000000000000e+00 0.000000000000000e+00 0.000000000000000e+00
0.000000000000000e+00 0.000000000000000e+00 0.000000000000000e+00
0.000000000000000e+00 0.000000000000000e+00 0.000000000000000e+00
0.000000000000000e+00 0.000000000000000e+00 0.000000000000000e+00
0.000000000000000e+00 0.000000000000000e+00 0.000000000000000e+00
0.000000000000000e+00 0.000000000000000e+00 0.000000000000000e+00
0.000000000000000e+00 0.000000000000000e+00 0.000000000000000e+00
0.000000000000000e+00 0.000000000000000e+00 0.000000000000000e+00
0.000000000000000e+00 0.000000000000000e+00 0.000000000000000e+00
0.000000000000000e+00 0.000000000000000e+00 0.000000000000000e+00
0.000000000000000e+00 0.000000000000000e+00 0.000000000000000e+00
0.000000000000000e+00 0.000000000000000e+00 0.000000000000000e+00
0.000000000000000e+00 0.000000000000000e+00 0.000000000000000e+00
0.000000000000000e+00 0.000000000000000e+00 0.000000000000000e+00
0.000000000000000e+00 0.000000000000000e+00 0.000000000000000e+00
0.000000000000000e+00 0.000000000000000e+00 0.000000000000000e+00
0.000000000000000e+00 0.000000000000000e+00 0.000000000000000e+00
0.000000000000000e+00 0.000000000000000e+00 0.000000000000000e+00
0.000000000000000e+00 0.000000000000000e+00 0.000000000000000e+00
0.000000000000000e+00 0.000000000000000e+00 0.000000000000000e+00
0.000000000000000e+00 0.000000000000000e+00 0.000000000000000e+00
0.000000000000000e+00 0.000000000000000e+00 0.000000000000000e+00
0.000000000000000e+00 0.000000000000000e+00 0.000000000000000e+00
0.000000000000000e+00 0.000000000000000e+00 0.000000000000000e+00
0.000000000000000e+00 0.000000000000000e+00 0.000000000000000e+00
0.000000000000000e+00 0.000000000000000e+00 0.000000000000000e+00
0.000000000000000e+00 0.000000000000000e+00 0.000000000000000e+00
0.000000000000000e+00 0.000000000000000e+00 0.000000000000000e+00
0.000000000000000e+00 0.000000000000000e+00 0.000000000000000e+00
0.000000000000000e+00 0.000000000000000e+00 0.000000000000000e+00
0.000000000000000e+00 0.000000000000000e+00 0.000000000000000e+00
0.000000000000000e+00 0.000000000000000e+00 0.000000000000000e+00
0.000000000000000e+00 0.000000000000000e+00 0.000000000000000e+00
0.000000000000000e+00 0.000000000000000e+00 0.000000000000000e+00
0.000000000000000e+00 0.000000000000000e+00 0.000000000000000e+00
0.000000000000000e+00 0.000000000000000e+00 0.000000000000000e+00
0.000000000000000e+00 0.000000000000000e+00 0.000000000000000e+00