# vtk DataFile Version 3.0
# Dislocation lines converted from MoDELib file
ASCII
DATASET UNSTRUCTURED_GRID
POINTS 2954 double
-1.429999999999877e+00  3.863858941524650e+02 -2.918975276816622e+03
-1.429999999999897e+00 -3.863858941524674e+02 -2.918975276816622e+03
-1.429999999999897e+00  0.000000000000000e+00 -2.918975276816622e+03
-1.430000000000221e+00  0.000000000000000e+00  2.918975276816619e+03
-1.430000000000221e+00 -3.863858941524674e+02  2.918975276816619e+03
-1.430000000000201e+00  3.863858941524653e+02  2.918975276816619e+03
-1.148473401597226e+03  1.104902197066087e+00 -2.918975276816622e+03
-1.148508949809790e+03 -1.052655435572913e+00 -2.918975276816622e+03
-1.148617257924113e+03 -1.741557269614730e+00 -2.918975276816622e+03
-1.148551112873841e+03 -3.939002781273760e+00 -2.918975276816622e+03
-1.148429914895590e+03 -5.248569592630198e+00 -2.918975276816622e+03
-1.148465547494767e+03 -6.326376543360393e+00 -2.918975276816622e+03
-1.148511476163089e+03 -8.209160019661253e+00 -2.918975276816622e+03
-1.148527301870981e+03 -1.299193018321197e+01 -2.918975276816622e+03
-1.148446165311922e+03 -1.366519983892807e+01 -2.918975276816622e+03
-1.148370200992234e+03 -1.660939287084391e+01 -2.918975276816622e+03
-1.148191823048133e+03 -2.009582373230555e+01 -2.918975276816622e+03
-1.148386053215916e+03 -2.290411574797066e+01 -2.918975276816622e+03
-1.148349698772613e+03 -2.692794328250358e+01 -2.918975276816622e+03
-1.148201607026393e+03 -2.804534663727000e+01 -2.918975276816622e+03
-1.148149170346870e+03 -3.476320728856589e+01 -2.918975276816622e+03
-1.147859480740462e+03 -3.561114388354735e+01 -2.918975276816622e+03
-1.148163472464170e+03 -3.849323184693835e+01 -2.918975276816622e+03
-1.148852115562031e+03 -4.064065835694747e+01 -2.918975276816622e+03
-1.146949393825987e+03 -4.070899340538691e+01 -2.918975276816622e+03
-1.147900974905473e+03 -4.335177966704573e+01 -2.918975276816622e+03
-1.147628118949549e+03 -4.515013304451058e+01 -2.918975276816622e+03
-1.147058060068151e+03 -4.976505863937622e+01 -2.918975276816622e+03
-1.145802960123712e+03 -5.253282963005667e+01 -2.918975276816622e+03
-1.148028687224103e+03 -5.287282157005697e+01 -2.918975276816622e+03
-1.147944529796556e+03 -5.577682055813848e+01 -2.918975276816622e+03
-1.148254780628445e+03 -5.843969963893756e+01 -2.918975276816622e+03
-1.148049109024912e+03 -6.012792340784532e+01 -2.918975276816622e+03
-1.148018900716141e+03 -6.131871359429601e+01 -2.918975276816622e+03
-1.147931769792991e+03 -6.331715731164092e+01 -2.918975276816622e+03
-1.147908997735291e+03 -6.434745265611463e+01 -2.918975276816622e+03
-1.147804248933375e+03 -6.637761874519238e+01 -2.918975276816622e+03
-1.147939153424003e+03 -6.741090101884826e+01 -2.918975276816622e+03
-1.147790190069694e+03 -6.993949405867905e+01 -2.918975276816622e+03
-1.147778761466104e+03 -7.060963754038809e+01 -2.918975276816622e+03
-1.147743522396839e+03 -7.211786878663798e+01 -2.918975276816622e+03
-1.147997029476191e+03 -7.418707111675104e+01 -2.918975276816622e+03
-1.147748288264559e+03 -7.529024135303877e+01 -2.918975276816622e+03
-1.147626760148995e+03 -7.632462588204322e+01 -2.918975276816622e+03
-1.147918585710591e+03 -7.831018994039985e+01 -2.918975276816622e+03
-1.147902670811075e+03 -8.029269756096400e+01 -2.918975276816622e+03
-1.146860160817378e+03 -8.132368307493890e+01 -2.918975276816622e+03
-1.147515826510875e+03 -8.371951505913438e+01 -2.918975276816622e+03
-1.148230513013487e+03 -8.518638257940032e+01 -2.918975276816622e+03
-1.147760307914276e+03 -8.745741470842627e+01 -2.918975276816622e+03
-1.147551911844901e+03 -8.950954857388862e+01 -2.918975276816622e+03
-1.147724254156923e+03 -9.041501512232323e+01 -2.918975276816622e+03
-1.147720362610333e+03 -9.211844204731955e+01 -2.918975276816622e+03
-1.147700994165918e+03 -9.485526119879783e+01 -2.918975276816622e+03
-1.147629896742489e+03 -9.555338264932243e+01 -2.918975276816622e+03
-1.147725259985722e+03 -9.845306674146617e+01 -2.918975276816622e+03
-1.147644088741929e+03 -1.003483506343720e+02 -2.918975276816622e+03
-1.147508844068854e+03 -1.013858259972744e+02 -2.918975276816622e+03
-1.147580660365264e+03 -1.032439973500129e+02 -2.918975276816622e+03
-1.147733339743670e+03 -1.042468762001993e+02 -2.918975276816622e+03
-1.147601113440829e+03 -1.062367366604935e+02 -2.918975276816622e+03
-1.147604176013897e+03 -1.072787679367629e+02 -2.918975276816622e+03
-1.147537332475984e+03 -1.097279033806303e+02 -2.918975276816622e+03
-1.147622462888459e+03 -1.105326083757894e+02 -2.918975276816622e+03
-1.147508531160419e+03 -1.122565887549897e+02 -2.918975276816622e+03
-1.147564580017928e+03 -1.141212994615994e+02 -2.918975276816622e+03
-1.147546241098813e+03 -1.141953959168602e+02 -2.918975276816622e+03
-1.147606259775585e+03 -1.157503795924015e+02 -2.918975276816622e+03
-1.147536458526057e+03 -1.183314559931501e+02 -2.918975276816622e+03
-1.147600298166621e+03 -1.201223755627248e+02 -2.918975276816622e+03
-1.147567226664221e+03 -1.213457472515735e+02 -2.918975276816622e+03
-1.147574936691124e+03 -1.236108296244979e+02 -2.918975276816622e+03
-1.147527008769413e+03 -1.248575915483688e+02 -2.918975276816622e+03
-1.147504690265128e+03 -1.295122537444521e+02 -2.918975276816622e+03
-1.147791214637362e+03 -1.297286391573474e+02 -2.918975276816622e+03
-1.148427720201545e+03 -1.319971426670985e+02 -2.918975276816622e+03
-1.147645537948794e+03 -1.341211081491157e+02 -2.918975276816622e+03
-1.147543216441680e+03 -1.343750163685202e+02 -2.918975276816622e+03
-1.147585640190113e+03 -1.357604192715941e+02 -2.918975276816622e+03
-1.147574153388805e+03 -1.383931062747342e+02 -2.918975276816622e+03
-1.147657487324935e+03 -1.400660945073696e+02 -2.918975276816622e+03
-1.147822165121320e+03 -1.412806424853704e+02 -2.918975276816622e+03
-1.147694632749013e+03 -1.431656427460067e+02 -2.918975276816622e+03
-1.147545240324287e+03 -1.441580997872401e+02 -2.918975276816622e+03
-1.147667496645817e+03 -1.461393649313351e+02 -2.918975276816622e+03
-1.147646969107909e+03 -1.471543451301262e+02 -2.918975276816622e+03
-1.147718083768448e+03 -1.496592414594878e+02 -2.918975276816622e+03
-1.147852883084665e+03 -1.503618274944179e+02 -2.918975276816622e+03
-1.147776999328659e+03 -1.520371770870636e+02 -2.918975276816622e+03
-1.147750522843771e+03 -1.540285849699562e+02 -2.918975276816622e+03
-1.147771517366452e+03 -1.540620891555009e+02 -2.918975276816622e+03
-1.147776083347853e+03 -1.559575009499728e+02 -2.918975276816622e+03
-1.147819868129472e+03 -1.601707062619603e+02 -2.918975276816622e+03
-1.147832949007656e+03 -1.612250283907721e+02 -2.918975276816622e+03
-1.147866874963662e+03 -1.631883787891143e+02 -2.918975276816622e+03
-1.147865802473213e+03 -1.647264634960499e+02 -2.918975276816622e+03
-1.147899883738930e+03 -1.723225749240766e+02 -2.918975276816622e+03
-1.147938650404657e+03 -1.756641210080374e+02 -2.918975276816622e+03
-1.147983258647870e+03 -1.783160255280566e+02 -2.918975276816622e+03
-1.147977996833032e+03 -1.802137670388833e+02 -2.918975276816622e+03
-1.147961248420705e+03 -1.812738820311132e+02 -2.918975276816622e+03
-1.147982823680884e+03 -1.831428915694951e+02 -2.918975276816622e+03
-1.148046128404395e+03 -1.847062445000862e+02 -2.918975276816622e+03
-1.148066919683345e+03 -1.894889064852010e+02 -2.918975276816622e+03
-1.148002110447101e+03 -1.901228114236796e+02 -2.918975276816622e+03
-1.147984624821550e+03 -1.919408295494960e+02 -2.918975276816622e+03
-1.147925119687073e+03 -1.938987326604198e+02 -2.918975276816622e+03
-1.148054970625459e+03 -1.942966942701964e+02 -2.918975276816622e+03
-1.148014904605157e+03 -1.960477861831228e+02 -2.918975276816622e+03
-1.148013453313370e+03 -2.000599447078757e+02 -2.918975276816622e+03
-1.147917514375551e+03 -2.010821219972395e+02 -2.918975276816622e+03
-1.148014936164885e+03 -2.030841947309240e+02 -2.918975276816622e+03
-1.148005522091770e+03 -2.040536944874834e+02 -2.918975276816622e+03
-1.147995353652542e+03 -2.060197022998858e+02 -2.918975276816622e+03
-1.147832218060633e+03 -2.070721882804658e+02 -2.918975276816622e+03
-1.147910596957606e+03 -2.096194308677339e+02 -2.918975276816622e+03
-1.148058173136504e+03 -2.104080646759212e+02 -2.918975276816622e+03
-1.147940011980929e+03 -2.124200785040953e+02 -2.918975276816622e+03
-1.147768308395498e+03 -2.155980601018984e+02 -2.918975276816622e+03
-1.147875314799820e+03 -2.182425262779762e+02 -2.918975276816622e+03
-1.147823895322930e+03 -2.200930471233074e+02 -2.918975276816622e+03
-1.147739952880429e+03 -2.212143867985722e+02 -2.918975276816622e+03
-1.147488164959939e+03 -2.231259549548246e+02 -2.918975276816622e+03
-1.147689820634621e+03 -2.246429062981299e+02 -2.918975276816622e+03
-1.147512426392742e+03 -2.294545708021343e+02 -2.918975276816622e+03
-1.147441944953999e+03 -2.301869097321758e+02 -2.918975276816622e+03
-1.147333530009851e+03 -2.319840970358357e+02 -2.918975276816622e+03
-1.147155245369775e+03 -2.337688372683237e+02 -2.918975276816622e+03
-1.147329214083002e+03 -2.339108713180430e+02 -2.918975276816622e+03
-1.147417345452543e+03 -2.355555271779257e+02 -2.918975276816622e+03
-1.147286321161431e+03 -2.381255527520711e+02 -2.918975276816622e+03
-1.147564271475522e+03 -2.401184368491535e+02 -2.918975276816622e+03
-1.147641533380757e+03 -2.411839618572773e+02 -2.918975276816622e+03
-1.147737573964365e+03 -2.431470438551113e+02 -2.918975276816622e+03
-1.147833763359693e+03 -2.444664701608158e+02 -2.918975276816622e+03
-1.147912494173220e+03 -2.470168234233234e+02 -2.918975276816622e+03
-1.147768518093252e+03 -2.470570437873179e+02 -2.918975276816622e+03
-1.147574897910022e+03 -2.497851597396126e+02 -2.918975276816622e+03
-1.147772137694259e+03 -2.507528073171142e+02 -2.918975276816622e+03
-1.148096991795905e+03 -2.516550059953703e+02 -2.918975276816622e+03
-1.147810152211369e+03 -2.538743316174712e+02 -2.918975276816622e+03
-1.147779225957721e+03 -2.551936723304196e+02 -2.918975276816622e+03
-1.147836846805017e+03 -2.574882100831455e+02 -2.918975276816622e+03
[...]
POINT_DATA 2954
VECTORS PK_force double
0.000000000000000e+00 0.000000000000000e+00 0.000000000000000e+00
0.000000000000000e+00 0.000000000000000e+00 0.000000000000000e+00
0.000000000000000e+00 0.000000000000000e+00 0.000000000000000e+00
0.000000000000000e+00 0.000000000000000e+00 0.000000000000000e+00
0.000000000000000e+00 0.000000000000000e+00 0.000000000000000e+00
0.000000000000000e+00 0.000000000000000e+00 0.000000000000000e+00
0.000000000000000e+00 0.000000000000000e+00 0.000000000000000e+00
0.000000000000000e+00 0.000000000000000e+00 0.000000000000000e+00
0.000000000000000e+00 0.000000000000000e+00 0.000000000000000e+00
0.000000000000000e+00 0.000000000000000e+00 0.000000000000000e+00
0.000000000000000e+00 0.000000000000000e+00 0.000000000000000e+00
0.000000000000000e+00 0.000000000000000e+00 0.000000000000000e+00
0.000000000000000e+00 0.000000000000000e+00 0.000000000000000e+00
0.000000000000000e+00 0.000000000000000e+00 0.000000000000000e+00
0.000000000000000e+00 0.000000000000000e+00 0.000000000000000e+00
0.000000000000000e+00 0.000000000000000e+00 0.000000000000000e+00
0.000000000000000e+00 0.000000000000000e+00 0.000000000000000e+00
0.000000000000000e+00 0.000000000000000e+00 0.000000000000000e+00
0.000000000000000e+00 0.000000000000000e+00 0.000000000000000e+00
0.000000000000000e+00 0.000000000000000e+00 0.000000000000000e+00
0.000000000000000e+00 0.000000000000000e+00 0.000000000000000e+00
0.000000000000000e+00 0.000000000000000e+00 0.000000000000000e+00
0.000000000000000e+00 0.000000000000000e+00 0.000000000000000e+00
0.000000000000000e+00 0.000000000000000e+00 0.000000000000000e+00
0.000000000000000e+00 0.000000000000000e+00 0.000000000000000e+00
0.000000000000000e+00 0.000000000000000e+00 0.000000000000000e+00
0.000000000000000e+00 0.000000000000000e+00 0.000000000000000e+00
0.000000000000000e+00 0.000000000000000e+00 0.000000000000000e+00
0.000000000000000e+00 0.000000000000000e+00 0.000000000000000e+00
0.000000000000000e+00 0.000000000000000e+00 0.000000000000000e+00
0.000000000000000e+00 0.000000000000000e+00 0.000000000000000e+00
0.000000000000000e+00 0.000000000000000e+00 0.000000000000000e+00
0.000000000000000e+00 0.000000000000000e+00 0.000000000000000e+00
0.000000000000000e+00 0.000000000000000e+00 0.000000000000000e+00
0.000000000000000e+00 0.000000000000000e+00 0.000000000000000e+00
0.000000000000000e+00 0.000000000000000e+00 0.000000000000000e+00
0.000000000000000e+00 0.000000000000000e+00 0.000000000000000e+00
0.000000000000000e+00 0.000000000000000e+00 0.000000000000000e+00
0.000000000000000e+00 0.000000000000000e+00 0.000000000000000e+00
0.000000000000000e+00 0.000000000000000e+00 0.000000000000000e+00
0.000000000000000e+00 0.000000000000000e+00 0.000000000000000e+00
0.000000000000000e+00 0.000000000000000e+00 0.000000000000000e+00
0.000000000000000e+00 0.000000000000000e+00 0.000000000000000e+00
0.000000000000000e+00 0.000000000000000e+00 0.000000000000000e+00
0.000000000000000e+00 0.000000000000000e+00 0.000000000000000e+00
0.000000000000000e+00 0.000000000000000e+00 0.000000000000000e+00
0.000000000000000e+00 0.000000000000000e+00 0.000000000000000e+00
0.000000000000000e+00 0.000000000000000e+00 0.000000000000000e+00
0.000000000000000e+00 0.000000000000000e+00 0.000000000000000e+00
0.000000000000000e+00 0.000000000000000e+00 0.000000000000000e+00
0.000000000000000e+00 0.000000000000000e+00 0.000000000000000e+00
0.000000000000000e+00 0.000000000000000e+00 0.000000000000000e+00
0.000000000000000e+00 0.000000000000000e+00 0.000000000000000e+00
0.000000000000000e+00 0.000000000000000e+00 0.000000000000000e+00
0.000000000000000e+00 0.000000000000000e+00 0.000000000000000e+00
0.000000000000000e+00 0.000000000000000e+00 0.000000000000000e+00
0.000000000000000e+00 0.000000000000000e+00 0.000000000000000e+00
0.000000000000000e+00 0.000000000000000e+00 0.000000000000000e+00
0.000000000000000e+00 0.000000000000000e+00 0.000000000000000e+00
0.000000000000000e+00 0.000000000000000e+00 0.000000000000000e+00
0.000000000000000e+00 0.000000000000000e+00 0.000000000000000e+00
0.000000000000000e+00 0.000000000000000e+00 0.000000000000000e+00
0.000000000000000e+00 0.000000000000000e+00 0.000000000000000e+00
0.000000000000000e+00 0.000000000000000e+00 0.000000000000000e+00
0.000000000000000e+00 0.000000000000000e+00 0.000000000000000e+00
0.000000000000000e+00 0.000000000000000e+00 0.000000000000000e+00
0.000000000000000e+00 0.000000000000000e+00 0.000000000000000e+00
0.000000000000000e+00 0.000000000000000e+00 0.000000000000000e+00
0.000000000000000e+00 0.000000000000000e+00 0.000000000000000e+00
0.000000000000000e+00 0.000000000000000e+00 0.000000000000000e+00
0.000000000000000e+00 0.000000000000000e+00 0.000000000000000e+00
0.000000000000000e+00 0.000000000000000e+00 0.000000000000000e+00
0.000000000000000e+00 0.000000000000000e+00 0.000000000000000e+00
0.000000000000000e+00 0.000000000000000e+00 0.000000000000000e+00
0.000000000000000e+00 0.000000000000000e+00 0.000000000000000e+00
0.000000000000000e+00 0.000000000000000e+00 0.000000000000000e+00
0.000000000000000e+00 0.000000000000000e+00 0.000000000000000e+00
0.000000000000000e+00 0.000000000000000e+00 0.000000000000000e+00
0.000000000000000e+00 0.000000000000000e+00 0.000000000000000e+00
0.000000000000000e+00 0.000000000000000e+00 0.000000000000000e+00
0.000000000000000e+00 0.000000000000000e+00 0.000000000000000e+00
0.000000000000000e+00 0.000000000000000e+00 0.000000000000000e+00
0.000000000000000e+00 0.000000000000000e+00 0.000000000000000e+00
0.000000000000000e+00 0.000000000000000e+00 0.000000000000000e+00
0.000000000000000e+00 0.000000000000000e+00 0.000000000000000e+00
0.000000000000000e+00 0.000000000000000e+00 0.000000000000000e+00
0.000000000000000e+00 0.000000000000000e+00 0.000000000000000e+00
0.000000000000000e+00 0.000000000000000e+00 0.000000000000000e+00
0.000000000000000e+00 0.000000000000000e+00 0.000000000000000e+00
0.000000000000000e+00 0.000000000000000e+00 0.000000000000000e+00
0.000000000000000e+00 0.000000000000000e+00 0.000000000000000e+00
0.000000000000000e+00 0.000000000000000e+00 0.000000000000000e+00
0.000000000000000e+00 0.000000000000000e+00 0.000000000000000e+00
0.000000000000000e+00 0.000000000000000e+00 0.000000000000000e+00
0.000000000000000e+00 0.000000000000000e+00 0.000000000000000e+00
0.000000000000000e+00 0.000000000000000e+00 0.000000000000000e+00
0.000000000000000e+00 0.000000000000000e+00 0.000000000000000e+00
0.000000000000000e+00 0.000000000000000e+00 0.000000000000000e+00
0.000000000000000e+00 0.000000000000000e+00 0.000000000000000e+00
0.000000000000000e+00 0.000000000000000e+00 0.000000000000000e+00
0.000000000000000e+00 0.000000000000000e+00 0.000000000000000e+00
0.000000000000000e+00 0.000000000000000e+00 0.000000000000000e+00
0.000000000000000e+00 0.000000000000000e+00 0.000000000000000e+00
0.000000000000000e+00 0.000000000000000e+00 0.000000000000000e+00
0.000000000000000e+00 0.000000000000000e+00 0.000000000000000e+00
0.000000000000000e+00 0.000000000000000e+00 0.000000000000000e+00
0.000000000000000e+00 0.000000000000000e+00 0.000000000000000e+00
0.000000000000000e+00 0.000000000000000e+00 0.000000000000000e+00
0.000000000000000e+00 0.000000000000000e+00 0.000000000000000e+00
0.000000000000000e+00 0.000000000000000e+00 0.000000000000000e+00
0.000000000000000e+00 0.000000000000000e+00 0.000000000000000e+00
0.000000000000000e+00 0.000000000000000e+00 0.000000000000000e+00
0.000000000000000e+00 0.000000000000000e+00 0.000000000000000e+00
0.000000000000000e+00 0.000000000000000e+00 0.000000000000000e+00
0.000000000000000e+00 0.000000000000000e+00 0.000000000000000e+00
0.000000000000000e+00 0.000000000000000e+00 0.000000000000000e+00
0.000000000000000e+00 0.000000000000000e+00 0.000000000000000e+00
0.000000000000000e+00 0.000000000000000e+00 0.000000000000000e+00
0.000000000000000e+00 0.000000000000000e+00 0.000000000000000e+00
0.000000000000000e+00 0.000000000000000e+00 0.000000000000000e+00
0.000000000000000e+00 0.000000000000000e+00 0.000000000000000e+00
0.000000000000000e+00 0.000000000000000e+00 0.000000000000000e+00
0.000000000000000e+00 0.000000000000000e+00 0.000000000000000e+00
0.000000000000000e+00 0.000000000000000e+00 0.000000000000000e+00
0.000000000000000e+00 0.000000000000000e+00 0.000000000000000e+00
0.000000000000000e+00 0.000000000000000e+00 0.000000000000000e+00
0.000000000000000e+00 0.000000000000000e+00 0.000000000000000e+00
0.000000000000000e+00 0.000000000000000e+00 0.000000000000000e+00
0.000000000000000e+00 0.000000000000000e+00 0.000000000000000e+00
0.000000000000000e+00 0.000000000000000e+00 0.000000000000000e+00
0.000000000000000e+00 0.000000000000000e+00 0.000000000000000e+00
0.000000000000000e+00 0.000000000000000e+00 0.000000000000000e+00
0.000000000000000e+00 0.000000000000000e+00 0.000000000000000e+00
0.000000000000000e+00 0.000000000000000e+00 0.000000000000000e+00
0.000000000000000e+00 0.000000000000000e+00 0.000000000000000e+00
0.000000000000000e+00 0.000000000000000e+00 0.000000000000000e+00
0.000000000000000e+00 0.000000000000000e+00 0.000000000000000e+00
0.000000000000000e+00 0.000000000000000e+00 0.000000000000000e+00
0.000000000000000e+00 0.000000000000000e+00 0.000000000000000e+00
0.000000000000000e+00 0.000000000000000e+00 0.000000000000000e+00
0.000000000000000e+00 0.000000000000000e+00 0.000000000000000e+00
0.000000000000000e+00 0.000000000000000e+00 0.000000000000000e+00
0.000000000000000e+00 0.000000000000000e+00 0.000000000000000e+00
0.000000000000000e+00 0.000000000000000e+00 0.000000000000000e+00
0.000000000000000e+00 0.000000000000000e+00 0.000000000000000e+00
0.000000000000000e+00 0.000000000000000e+00 0.000000000000000e+00
0.000000000000000e+00 0.000000000000000e+00 0.000000000000000e+00
0.000000000000000e+00 0.000000000000000e+00 0.000000000000000e+00
0.000000000000000e+00 0.000000000000000e+00 0.000000000000000e+00
0.000000000000000e+00 0.000000000000000e+00 0.000000000000000e+00
0.000000000000000e+00 0.000000000000000e+00 0.000000000000000e+00
0.000000000000000e+00 0.000000000000000e+00 0.000000000000000e+00
0.000000000000000e+00 0.000000000000000e+00 0.000000000000000e+00
0.000000000000000e+00 0.000000000000000e+00 0.000000000000000e+00
0.000000000000000e+00 0.000000000000000e+00 0.000000000000000e+00
0.000000000000000e+00 0.000000000000000e+00 0.000000000000000e+00
0.000000000000000e+00 0.000000000000000e+00 0.000000000000000e+00
0.000000000000000e+00 0.000000000000000e+00 0.000000000000000e+00
0.000000000000000e+00 0.000000000000000e+00 0.000000000000000e+00
0.000000000000000e+00 0.000000000000000e+00 0.000000000000000e+00
0.000000000000000e+00 0.000000000000000e+00 0.000000000000000e+00
0.000000000000000e+00 0.000000000000000e+00 0.000000000000000e+00
0.000000000000000e+00 0.000000000000000e+00 0.000000000000000e+00
0.000000000000000e+00 0.000000000000000e+00 0.000000000000000e+00
0.000000000000000e+00 0.000000000000000e+00 0.000000000000000e+00
0.000000000000000e+00 0.000000000000000e+00 0.000000000000000e+00
0.000000000000000e+00 0.000000000000000e+00 0.000000000000000e+00
0.000000000000000e+00 0.000000000000000e+00 0.000000000000000e+00
0.000000000000000e+00 0.000000000000000e+00 0.000000000000000e+00
0.000000000000000e+00 0.000000000000000e+00 0.000000000000000e+00
0.000000000000000e+00 0.000000000000000e+00 0.000000000000000e+00
0.000000000000000e+00 0.000000000000000e+00 0.000000000000000e+00
0.000000000000000e+00 0.000000000000000e+00 0.000000000000000e+00
0.000000000000000e+00 0.000000000000000e+00 0.000000000000000e+00
0.000000000000000e+00 0.000000000000000e+00 0.000000000000000e+00
0.000000000000000e+00 0.000000000000000e+00 0.000000000000000e+00
0.000000000000000e+00 0.000000000000000e+00 0.000000000000000e+00
0.000000000000000e+00 0.000000000000000e+00 0.000000000000000e+00
0.000000000000000e+00 0.000000000000000e+00 0.000000000000000e+00
0.000000000000000e+00 0.000000000000000e+00 0.000000000000000e+00
0.000000000000000e+00 0.000000000000000e+00 0.000000000000000e+00
0.000000000000000e+00 0.000000000000000e+00 0.000000000000000e+00
0.000000000000000e+00 0.000000000000000e+00 0.000000000000000e+00
0.000000000000000e+00 0.000000000000000e+00 0.000000000000000e+00
0.000000000000000e+00 0.000000000000000e+00 0.000000000000000e+00
0.000000000000000e+00 0.000000000000000e+00 0.000000000000000e+00
0.000000000000000e+00 0.000000000000000e+00 0.000000000000000e+00
0.000000000000000e+00 0.000000000000000e+00 0.000000000000000e+00
0.000000000000000e+00 0.000000000000000e+00 0.000000000000000e+00
0.000000000000000e+00 0.000000000000000e+00 0.000000000000000e+00
0.000000000000000e+00 0.000000000000000e+00 0.000000000000000e+00
0.000000000000000e+00 0.000000000000000e+00 0.000000000000000e+00
0.000000000000000e+00 0.000000000000000e+00 0.000000000000000e+00
0.000000000000000e+00 0.000000000000000e+00 0.000000000000000e+00
0.000000000000000e+00 0.000000000000000e+00 0.000000000000000e+00
0.000000000000000e+00 0.000000000000000e+00 0.000000000000000e+00
0.000000000000000e+00 0.000000000000000e+00 0.000000000000000e+00
0.000000000000000e+00 0.000000000000000e+00 0.000000000000000e+00
0.000000000000000e+00 0.000000000000000e+00 0.000000000000000e+00
0.000000000000000e+00 0.000000000000000e+00 0.000000000000000e+00
0.000000000000000e+00 0.000000000000000e+00 0.000000000000000e+00
0.000000000000000e+00 0.000000000000000e+00 0.000000000000000e+00
0.000000000000000e+00 0.000000000000000e+00 0.000000000000000e+00
0.000000000000000e+00 0.000000000000000e+00 0.000000000000000e+00
0.000000000000000e+00 0.000000000000000e+00 0.000000000000000e+00
0.000000000000000e+00 0.000000000000000e+00 0.000000000000000e+00
0.000000000000000e+00 0.000000000000000e+00 0.000000000000000e+00
0.000000000000000e+00 0.000000000000000e+00 0.000000000000000e+00
0.000000000000000e+00 0.000000000000000e+00 0.000000000000000e+00
0.000000000000000e+00 0.000000000000000e+00 0.000000000000000e+00
0.000000000000000e+00 0.000000000000000e+00 0.000000000000000e+00
0.000000000000000e+00 0.000000000000000e+00 0.000000000000000e+00
0.000000000000000e+00 0.000000000000000e+00 0.000000000000000e+00
0.000000000000000e+00 0.000000000000000e+00 0.000000000000000e+00
0.000000000000000e+00 0.000000000000000e+00 0.000000000000000e+00
0.000000000000000e+00 0.000000000000000e+00 0.000000000000000e+00
0.000000000000000e+00 0.000000000000000e+00 0.000000000000000e+00
0.000000000000000e+00 0.000000000000000e+00 0.000000000000000e+00
0.000000000000000e+00 0.000000000000000e+00 0.000000000000000e+00
0.000000000000000e+00 0.000000000000000e+00 0.000000000000000e+00
0.000000000000000e+00 0.000000000000000e+00 0.000000000000000e+00
0.000000000000000e+00 0.000000000000000e+00 0.000000000000000e+00
0.000000000000000e+00 0.000000000000000e+00 0.000000000000000e+00
0.000000000000000e+00 0.000000000000000e+00 0.000000000000000e+00
0.000000000000000e+00 0.000000000000000e+00 0.000000000000000e+00
0.000000000000000e+00 0.000000000000000e+00 0.000000000000000e+00
0.000000000000000e+00 0.000000000000000e+00 0.000000000000000e+00
0.000000000000000e+00 0.000000000000000e+00 0.000000000000000e+00
0.000000000000000e+00 0.000000000000000e+00 0.000000000000000e+00
0.000000000000000e+00 0.000000000000000e+00 0.000000000000000e+00
0.000000000000000e+00 0.000000000000000e+00 0.000000000000000e+00
0.000000000000000e+00 0.000000000000000e+00 0.000000000000000e+00
0.000000000000000e+00 0.000000000000000e+00 0.000000000000000e+00
0.000000000000000e+00 0.000000000000000e+00 0.000000000000000e+00
0.000000000000000e+00 0.000000000000000e+00 0.000000000000000e+00
0.000000000000000e+00 0.000000000000000e+00 0.000000000000000e+00
0.000000000000000e+00 0.000000000000000e+00 0.000000000000000e+00
0.000000000000000e+00 0.000000000000000e+00 0.000000000000000e+00
0.000000000000000e+00 0.000000000000000e+00 0.000000000000000e+00
0.000000000000000e+00 0.000000000000000e+00 0.000000000000000e+00
0.000000000000000e+00 0.000000000000000e+00 0.000000000000000e+00
0.000000000000000e+00 0.000000000000000e+00 0.000000000000000e+00
0.000000000000000e+00 0.000000000000000e+00 0.000000000000000e+00
0.000000000000000e+00 0.000000000000000e+00 0.000000000000000e+00
0.000000000000000e+00 0.000000000000000e+00 0.000000000000000e+00
0.000000000000000e+00 0.000000000000000e+00 0.000000000000000e+00
0.000000000000000e+00 0.000000000000000e+00 0.000000000000000e+00
0.000000000000000e+00 0.000000000000000e+00 0.000000000000000e+00
0.000000000000000e+00 0.000000000000000e+00 0.000000000000000e+00
0.000000000000000e+00 0.000000000000000e+00 0.000000000000000e+00
0.000000000000000e+00 0.000000000000000e+00 0.000000000000000e+00
0.000000000000000e+00 0.000000000000000e+00 0.000000000000000e+00
0.000000000000000e+00 0.000000000000000e+00 0.000000000000000e+00
0.000000000000000e+00 0.000000000000000e+00 0.000000000000000e+00
0.000000000000000e+00 0.000000000000000e+00 0.000000000000000e+00
0.000000000000000e+00 0.000000000000000e+00 0.000000000000000e+00
0.000000000000000e+00 0.000000000000000e+00 0.000000000000000e+00
0.000000000000000e+00 0.000000000000000e+00 0.000000000000000e+00
0.000000000000000e+00 0.000000000000000e+00 0.000000000000000e+00
0.000000000000000e+00 0.000000000000000e+00 0.000000000000000e+00
0.000000000000000e+00 0.000000000000000e+00 0.000000000000000e+00
0.000000000000000e+00 0.000000000000000e+00 0.000000000000000e+00
0.000000000000000e+00 0.000000000000000e+00 0.000000000000000e+00
0.000000000000000e+00 0.000000000000000e+00 0.000000000000000e+00
0.000000000000000e+00 0.000000000000000e+00 0.000000000000000e+00
0.000000000000000e+00 0.000000000000000e+00 0.000000000000000e+00
0.000000000000000e+00 0.000000000000000e+00 0.000000000000000e+00
0.000000000000000e+00 0.000000000000000e+00 0.000000000000000e+00
0.000000000000000e+00 0.000000000000000e+00 0.000000000000000e+00
0.000000000000000e+00 0.000000000000000e+00 0.000000000000000e+00
0.000000000000000e+00 0.000000000000000e+00 0.000000000000000e+00
0.000000000000000e+00 0.000000000000000e+00 0.000000000000000e+00
0.000000000000000e+00 0.000000000000000e+00 0.000000000000000e+00
0.000000000000000e+00 0.000000000000000e+00 0.000000000000000e+00
0.000000000000000e+00 0.000000000000000e+00 0.000000000000000e+00
0.000000000000000e+00 0.000000000000000e+00 0.000000000000000e+00
0.000000000000000e+00 0.000000000000000e+00 0.000000000000000e+00
0.000000000000000e+00 0.000000000000000e+00 0.000000000000000e+00
0.000000000000000e+00 0.000000000000000e+00 0.000000000000000e+00
0.000000000000000e+00 0.000000000000000e+00 0.000000000000000e+00
0.000000000000000e+00 0.000000000000000e+00 0.000000000000000e+00
0.000000000000000e+00 0.000000000000000e+00 0.000000000000000e+00
0.000000000000000e+00 0.000000000000000e+00 0.000000000000000e+00
0.000000000000000e+00 0.000000000000000e+00 0.000000000000000e+00
0.000000000000000e+00 0.000000000000000e+00 0.000000000000000e+00
0.000000000000000e+00 0.000000000000000e+00 0.000000000000000e+00
0.000000000000000e+00 0.000000000000000e+00 0.000000000000000e+00
0.000000000000000e+00 0.000000000000000e+00 0.000000000000000e+00
0.000000000000000e+00 0.000000000000000e+00 0.000000000000000e+00
0.000000000000000e+00 0.000000000000000e+00 0.000000000000000e+00
0.000000000000000e+00 0.000000000000000e+00 0.000000000000000e+00
0.000000000000000e+00 0.000000000000000e+00 0.000000000000000e+00
0.000000000000000e+00 0.000000000000000e+00 0.000000000000000e+00
0.000000000000000e+00 0.000000000000000e+00 0.000000000000000e+00
0.000000000000000e+00 0.000000000000000e+00 0.000000000000000e+00
0.000000000000000e+00 0.000000000000000e+00 0.000000000000000e+00
0.000000000000000e+00 0.000000000000000e+00 0.000000000000000e+00
0.000000000000000e+00 0.000000000000000e+00 0.000000000000000e+00
0.000000000000000e+00 0.000000000000000e+00 0.000000000000000e+00
0.000000000000000e+00 0.000000000000000e+00 0.000000000000000e+00
0.000000000000000e+00 0.000000000000000e+00 0.000000000000000e+00
0.000000000000000e+00 0.000000000000000e+00 0.000000000000000e+00