# vtk DataFile Version 3.0
# Dislocation lines converted from MoDELib file
ASCII
DATASET UNSTRUCTURED_GRID
POINTS 3392 double
-1.429999999999877e+00  3.863858941524650e+02 -2.918975276816622e+03
-1.429999999999897e+00 -3.863858941524674e+02 -2.918975276816622e+03
-1.429999999999897e+00  0.000000000000000e+00 -2.918975276816622e+03
-1.430000000000221e+00  0.000000000000000e+00  2.918975276816619e+03
-1.430000000000221e+00 -3.863858941524674e+02  2.918975276816619e+03
-1.430000000000201e+00  3.863858941524653e+02  2.918975276816619e+03
-1.148968982688421e+03  1.091890921953659e+00 -2.918975276816622e+03
-1.148744754695310e+03 -9.335339328008831e-01 -2.918975276816622e+03
-1.148507286411591e+03 -1.589269006475263e+00 -2.918975276816622e+03
-1.148569908251912e+03 -3.943366033158420e+00 -2.918975276816622e+03
-1.149225684681886e+03 -4.854016079598123e+00 -2.918975276816622e+03
-1.148796876698518e+03 -6.474431148265356e+00 -2.918975276816622e+03
-1.148763918520865e+03 -8.277125040550972e+00 -2.918975276816622e+03
-1.148791303544294e+03 -1.310964895348452e+01 -2.918975276816622e+03
-1.148801762314149e+03 -1.379049745375109e+01 -2.918975276816622e+03
-1.148773770809660e+03 -1.661474527352670e+01 -2.918975276816622e+03
-1.148749570096124e+03 -2.009809143971343e+01 -2.918975276816622e+03
-1.148866752544398e+03 -2.291635372827359e+01 -2.918975276816622e+03
-1.148824137851166e+03 -2.692573280397554e+01 -2.918975276816622e+03
-1.148812888657768e+03 -2.810266718342822e+01 -2.918975276816622e+03
-1.148638579557863e+03 -3.262102444779324e+01 -2.918975276816622e+03
-1.148693165532786e+03 -3.390490331663710e+01 -2.918975276816622e+03
-1.148401646017095e+03 -3.482100936928276e+01 -2.918975276816622e+03
-1.148543081491855e+03 -3.577786129056119e+01 -2.918975276816622e+03
-1.148135301819514e+03 -3.842051008220373e+01 -2.918975276816622e+03
-1.148273343655673e+03 -3.994579265807422e+01 -2.918975276816622e+03
-1.148055331294922e+03 -4.121668414373578e+01 -2.918975276816622e+03
-1.148048950675433e+03 -4.325933241963442e+01 -2.918975276816622e+03
-1.147895511867643e+03 -4.490439052780732e+01 -2.918975276816622e+03
-1.147560541635587e+03 -4.975637226670021e+01 -2.918975276816622e+03
-1.147487016970505e+03 -5.030383694077822e+01 -2.918975276816622e+03
-1.147317443940490e+03 -5.215547439113288e+01 -2.918975276816622e+03
-1.147010743385579e+03 -5.411524705356641e+01 -2.918975276816622e+03
-1.146979355802827e+03 -5.434148206589565e+01 -2.918975276816622e+03
-1.147354343382821e+03 -5.594518716639058e+01 -2.918975276816622e+03
-1.147396103572091e+03 -5.846694050631443e+01 -2.918975276816622e+03
-1.147578329304283e+03 -6.017409356720650e+01 -2.918975276816622e+03
-1.147577746508684e+03 -6.139191729676242e+01 -2.918975276816622e+03
-1.147679476528608e+03 -6.331661144313593e+01 -2.918975276816622e+03
-1.147701736626363e+03 -6.433202244975297e+01 -2.918975276816622e+03
-1.147713711388859e+03 -6.624830550934107e+01 -2.918975276816622e+03
-1.147792533981712e+03 -6.730112639278663e+01 -2.918975276816622e+03
-1.147738697919473e+03 -6.984725212736815e+01 -2.918975276816622e+03
-1.147836901201922e+03 -7.053799128156061e+01 -2.918975276816622e+03
-1.147722769202900e+03 -7.209817392552932e+01 -2.918975276816622e+03
-1.147890325046870e+03 -7.425642096782109e+01 -2.918975276816622e+03
-1.147751641337564e+03 -7.532735495529045e+01 -2.918975276816622e+03
-1.147892871141731e+03 -7.626472671940482e+01 -2.918975276816622e+03
-1.147748909329678e+03 -7.831719591498188e+01 -2.918975276816622e+03
-1.147935927951404e+03 -8.035181301968333e+01 -2.918975276816622e+03
-1.147782510551735e+03 -8.146386106176526e+01 -2.918975276816622e+03
-1.147954859881865e+03 -8.337415841266569e+01 -2.918975276816622e+03
-1.147791722887375e+03 -8.503373111315594e+01 -2.918975276816622e+03
-1.147961188314522e+03 -8.768210009201194e+01 -2.918975276816622e+03
-1.147816525203399e+03 -8.950683113866047e+01 -2.918975276816622e+03
-1.147926785909542e+03 -9.045767597934559e+01 -2.918975276816622e+03
-1.147804902062883e+03 -9.207665562604733e+01 -2.918975276816622e+03
-1.147884813750673e+03 -9.486528176441320e+01 -2.918975276816622e+03
-1.147765858799549e+03 -9.580195881185919e+01 -2.918975276816622e+03
-1.147860507936204e+03 -9.850239835244946e+01 -2.918975276816622e+03
-1.147768206398879e+03 -1.002877947245380e+02 -2.918975276816622e+03
-1.147800800678488e+03 -1.013612902279705e+02 -2.918975276816622e+03
-1.147640794063970e+03 -1.032484515197336e+02 -2.918975276816622e+03
-1.147733239552967e+03 -1.042278823209959e+02 -2.918975276816622e+03
-1.147660680371337e+03 -1.061708083505353e+02 -2.918975276816622e+03
-1.147664717381998e+03 -1.071944615386256e+02 -2.918975276816622e+03
-1.147559911721822e+03 -1.096965323438910e+02 -2.918975276816622e+03
-1.147597798230764e+03 -1.104098288437407e+02 -2.918975276816622e+03
-1.147447098818878e+03 -1.122557041065941e+02 -2.918975276816622e+03
-1.147478799046419e+03 -1.141467439570210e+02 -2.918975276816622e+03
-1.147409969590666e+03 -1.143558022666490e+02 -2.918975276816622e+03
-1.147569087776928e+03 -1.157868690581486e+02 -2.918975276816622e+03
-1.147441101436461e+03 -1.183263569757370e+02 -2.918975276816622e+03
-1.147550787106049e+03 -1.202275080906320e+02 -2.918975276816622e+03
-1.147452865702310e+03 -1.213445483809195e+02 -2.918975276816622e+03
-1.147525479340103e+03 -1.233383508530680e+02 -2.918975276816622e+03
-1.147612148379807e+03 -1.248368793512780e+02 -2.918975276816622e+03
-1.147484631013680e+03 -1.295936818004423e+02 -2.918975276816622e+03
-1.147475367237451e+03 -1.303422429758558e+02 -2.918975276816622e+03
-1.147271859103326e+03 -1.322071580061678e+02 -2.918975276816622e+03
-1.147238034813284e+03 -1.341579549041557e+02 -2.918975276816622e+03
-1.147253871063680e+03 -1.344241689752386e+02 -2.918975276816622e+03
-1.147428999749488e+03 -1.357671560684487e+02 -2.918975276816622e+03
-1.147422827347940e+03 -1.384025636008493e+02 -2.918975276816622e+03
-1.147581271337450e+03 -1.400692885069178e+02 -2.918975276816622e+03
-1.147557844222971e+03 -1.412657056693519e+02 -2.918975276816622e+03
-1.147684280085883e+03 -1.431789176061838e+02 -2.918975276816622e+03
-1.147610031855602e+03 -1.441424606521121e+02 -2.918975276816622e+03
-1.147736258696578e+03 -1.461064457353350e+02 -2.918975276816622e+03
-1.147722223591132e+03 -1.471488626780746e+02 -2.918975276816622e+03
-1.147803786275356e+03 -1.496412419023893e+02 -2.918975276816622e+03
-1.147802370736751e+03 -1.503413737551788e+02 -2.918975276816622e+03
-1.147868058962421e+03 -1.520356607411497e+02 -2.918975276816622e+03
-1.147897674177865e+03 -1.540311998432276e+02 -2.918975276816622e+03
-1.147861155062075e+03 -1.540884002420734e+02 -2.918975276816622e+03
-1.147867874650275e+03 -1.559672335918866e+02 -2.918975276816622e+03
-1.147890308298228e+03 -1.601736241229239e+02 -2.918975276816622e+03
-1.147892574737804e+03 -1.612318112732417e+02 -2.918975276816622e+03
-1.147890175990766e+03 -1.631945100785182e+02 -2.918975276816622e+03
-1.147889218156864e+03 -1.647399368435285e+02 -2.918975276816622e+03
-1.147886116342752e+03 -1.696208645519833e+02 -2.918975276816622e+03
-1.147890386279124e+03 -1.703538308668674e+02 -2.918975276816622e+03
-1.147902696486300e+03 -1.724186306499763e+02 -2.918975276816622e+03
-1.147880836785516e+03 -1.756588907502652e+02 -2.918975276816622e+03
-1.147886862737952e+03 -1.783054586029045e+02 -2.918975276816622e+03
-1.147857056208035e+03 -1.801859786761511e+02 -2.918975276816622e+03
-1.147881457185631e+03 -1.812762311386626e+02 -2.918975276816622e+03
-1.147864964077729e+03 -1.831590996655048e+02 -2.918975276816622e+03
-1.147892413550256e+03 -1.847127726541783e+02 -2.918975276816622e+03
-1.147935115323586e+03 -1.895312765828826e+02 -2.918975276816622e+03
-1.147815941980839e+03 -1.902206708355288e+02 -2.918975276816622e+03
-1.147917420462051e+03 -1.919421338962576e+02 -2.918975276816622e+03
-1.147860455674171e+03 -1.939178306077627e+02 -2.918975276816622e+03
-1.147775062003617e+03 -1.943134183232961e+02 -2.918975276816622e+03
-1.147786947341399e+03 -1.960507478498754e+02 -2.918975276816622e+03
-1.147872701432143e+03 -2.000619906025083e+02 -2.918975276816622e+03
-1.147948177580421e+03 -2.010892701731854e+02 -2.918975276816622e+03
-1.147978729723766e+03 -2.031150684574194e+02 -2.918975276816622e+03
-1.147887644391732e+03 -2.040526955084902e+02 -2.918975276816622e+03
-1.147815559810347e+03 -2.060356900457691e+02 -2.918975276816622e+03
-1.147915765022813e+03 -2.070753160280441e+02 -2.918975276816622e+03
-1.147952202226375e+03 -2.095870535327906e+02 -2.918975276816622e+03
-1.147941820689760e+03 -2.103977749198087e+02 -2.918975276816622e+03
-1.147900275871007e+03 -2.124232311902791e+02 -2.918975276816622e+03
-1.147942328297009e+03 -2.156061443310392e+02 -2.918975276816622e+03
-1.147849262063820e+03 -2.182326695072393e+02 -2.918975276816622e+03
-1.147865430352275e+03 -2.201140735156990e+02 -2.918975276816622e+03
-1.147819484777784e+03 -2.212144891159456e+02 -2.918975276816622e+03
-1.147806296007399e+03 -2.230845384568488e+02 -2.918975276816622e+03
-1.147756289783143e+03 -2.246467542176332e+02 -2.918975276816622e+03
-1.147599994204393e+03 -2.294703072072595e+02 -2.918975276816622e+03
-1.147576210251216e+03 -2.301962920579609e+02 -2.918975276816622e+03
-1.147419132294411e+03 -2.319926801567710e+02 -2.918975276816622e+03
-1.147273441669426e+03 -2.337546816847361e+02 -2.918975276816622e+03
-1.147231861433030e+03 -2.338225555690925e+02 -2.918975276816622e+03
-1.147518789527342e+03 -2.355404748052227e+02 -2.918975276816622e+03
-1.147541387077444e+03 -2.381237535318685e+02 -2.918975276816622e+03
-1.147698715648340e+03 -2.401207817239134e+02 -2.918975276816622e+03
-1.147649472100170e+03 -2.411887823834845e+02 -2.918975276816622e+03
-1.147759152225092e+03 -2.431554703076835e+02 -2.918975276816622e+03
-1.147699182623027e+03 -2.444642314180578e+02 -2.918975276816622e+03
-1.147775281656155e+03 -2.470168870946759e+02 -2.918975276816622e+03
-1.147741153463615e+03 -2.470755266795123e+02 -2.918975276816622e+03
[...]
POINT_DATA 3392
VECTORS PK_force double
0.000000000000000e+00 0.000000000000000e+00 0.000000000000000e+00
0.000000000000000e+00 0.000000000000000e+00 0.000000000000000e+00
0.000000000000000e+00 0.000000000000000e+00 0.000000000000000e+00
0.000000000000000e+00 0.000000000000000e+00 0.000000000000000e+00
0.000000000000000e+00 0.000000000000000e+00 0.000000000000000e+00
0.000000000000000e+00 0.000000000000000e+00 0.000000000000000e+00
0.000000000000000e+00 0.000000000000000e+00 0.000000000000000e+00
0.000000000000000e+00 0.000000000000000e+00 0.000000000000000e+00
0.000000000000000e+00 0.000000000000000e+00 0.000000000000000e+00
0.000000000000000e+00 0.000000000000000e+00 0.000000000000000e+00
0.000000000000000e+00 0.000000000000000e+00 0.000000000000000e+00
0.000000000000000e+00 0.000000000000000e+00 0.000000000000000e+00
0.000000000000000e+00 0.000000000000000e+00 0.000000000000000e+00
0.000000000000000e+00 0.000000000000000e+00 0.000000000000000e+00
0.000000000000000e+00 0.000000000000000e+00 0.000000000000000e+00
0.000000000000000e+00 0.000000000000000e+00 0.000000000000000e+00
0.000000000000000e+00 0.000000000000000e+00 0.000000000000000e+00
0.000000000000000e+00 0.000000000000000e+00 0.000000000000000e+00
0.000000000000000e+00 0.000000000000000e+00 0.000000000000000e+00
0.000000000000000e+00 0.000000000000000e+00 0.000000000000000e+00
0.000000000000000e+00 0.000000000000000e+00 0.000000000000000e+00
0.000000000000000e+00 0.000000000000000e+00 0.000000000000000e+00
0.000000000000000e+00 0.000000000000000e+00 0.000000000000000e+00
0.000000000000000e+00 0.000000000000000e+00 0.000000000000000e+00
0.000000000000000e+00 0.000000000000000e+00 0.000000000000000e+00
0.000000000000000e+00 0.000000000000000e+00 0.000000000000000e+00
0.000000000000000e+00 0.000000000000000e+00 0.000000000000000e+00
0.000000000000000e+00 0.000000000000000e+00 0.000000000000000e+00
0.000000000000000e+00 0.000000000000000e+00 0.000000000000000e+00
0.000000000000000e+00 0.000000000000000e+00 0.000000000000000e+00
0.000000000000000e+00 0.000000000000000e+00 0.000000000000000e+00
0.000000000000000e+00 0.000000000000000e+00 0.000000000000000e+00
0.000000000000000e+00 0.000000000000000e+00 0.000000000000000e+00
0.000000000000000e+00 0.000000000000000e+00 0.000000000000000e+00
0.000000000000000e+00 0.000000000000000e+00 0.000000000000000e+00
0.000000000000000e+00 0.000000000000000e+00 0.000000000000000e+00
0.000000000000000e+00 0.000000000000000e+00 0.000000000000000e+00
0.000000000000000e+00 0.000000000000000e+00 0.000000000000000e+00
0.000000000000000e+00 0.000000000000000e+00 0.000000000000000e+00
0.000000000000000e+00 0.000000000000000e+00 0.000000000000000e+00
0.000000000000000e+00 0.000000000000000e+00 0.000000000000000e+00
0.000000000000000e+00 0.000000000000000e+00 0.000000000000000e+00
0.000000000000000e+00 0.000000000000000e+00 0.000000000000000e+00
0.000000000000000e+00 0.000000000000000e+00 0.000000000000000e+00
0.000000000000000e+00 0.000000000000000e+00 0.000000000000000e+00
0.000000000000000e+00 0.000000000000000e+00 0.000000000000000e+00
0.000000000000000e+00 0.000000000000000e+00 0.000000000000000e+00
0.000000000000000e+00 0.000000000000000e+00 0.000000000000000e+00
0.000000000000000e+00 0.000000000000000e+00 0.000000000000000e+00
0.000000000000000e+00 0.000000000000000e+00 0.000000000000000e+00
0.000000000000000e+00 0.000000000000000e+00 0.000000000000000e+00
0.000000000000000e+00 0.000000000000000e+00 0.000000000000000e+00
0.000000000000000e+00 0.000000000000000e+00 0.000000000000000e+00
0.000000000000000e+00 0.000000000000000e+00 0.000000000000000e+00
0.000000000000000e+00 0.000000000000000e+00 0.000000000000000e+00
0.000000000000000e+00 0.000000000000000e+00 0.000000000000000e+00
0.000000000000000e+00 0.000000000000000e+00 0.000000000000000e+00
0.000000000000000e+00 0.000000000000000e+00 0.000000000000000e+00
0.000000000000000e+00 0.000000000000000e+00 0.000000000000000e+00
0.000000000000000e+00 0.000000000000000e+00 0.000000000000000e+00
0.000000000000000e+00 0.000000000000000e+00 0.000000000000000e+00
0.000000000000000e+00 0.000000000000000e+00 0.000000000000000e+00
0.000000000000000e+00 0.000000000000000e+00 0.000000000000000e+00
0.000000000000000e+00 0.000000000000000e+00 0.000000000000000e+00
0.000000000000000e+00 0.000000000000000e+00 0.000000000000000e+00
0.000000000000000e+00 0.000000000000000e+00 0.000000000000000e+00
0.000000000000000e+00 0.000000000000000e+00 0.000000000000000e+00
0.000000000000000e+00 0.000000000000000e+00 0.000000000000000e+00
0.000000000000000e+00 0.000000000000000e+00 0.000000000000000e+00
0.000000000000000e+00 0.000000000000000e+00 0.000000000000000e+00
0.000000000000000e+00 0.000000000000000e+00 0.000000000000000e+00
0.000000000000000e+00 0.000000000000000e+00 0.000000000000000e+00
0.000000000000000e+00 0.000000000000000e+00 0.000000000000000e+00
0.000000000000000e+00 0.000000000000000e+00 0.000000000000000e+00
0.000000000000000e+00 0.000000000000000e+00 0.000000000000000e+00
0.000000000000000e+00 0.000000000000000e+00 0.000000000000000e+00
0.000000000000000e+00 0.000000000000000e+00 0.000000000000000e+00
0.000000000000000e+00 0.000000000000000e+00 0.000000000000000e+00
0.000000000000000e+00 0.000000000000000e+00 0.000000000000000e+00
0.000000000000000e+00 0.000000000000000e+00 0.000000000000000e+00
0.000000000000000e+00 0.000000000000000e+00 0.000000000000000e+00
0.000000000000000e+00 0.000000000000000e+00 0.000000000000000e+00
0.000000000000000e+00 0.000000000000000e+00 0.000000000000000e+00
0.000000000000000e+00 0.000000000000000e+00 0.000000000000000e+00
0.000000000000000e+00 0.000000000000000e+00 0.000000000000000e+00
0.000000000000000e+00 0.000000000000000e+00 0.000000000000000e+00
0.000000000000000e+00 0.000000000000000e+00 0.000000000000000e+00
0.000000000000000e+00 0.000000000000000e+00 0.000000000000000e+00
0.000000000000000e+00 0.000000000000000e+00 0.000000000000000e+00
0.000000000000000e+00 0.000000000000000e+00 0.000000000000000e+00
0.000000000000000e+00 0.000000000000000e+00 0.000000000000000e+00
0.000000000000000e+00 0.000000000000000e+00 0.000000000000000e+00
0.000000000000000e+00 0.000000000000000e+00 0.000000000000000e+00
0.000000000000000e+00 0.000000000000000e+00 0.000000000000000e+00
0.000000000000000e+00 0.000000000000000e+00 0.000000000000000e+00
0.000000000000000e+00 0.000000000000000e+00 0.000000000000000e+00
0.000000000000000e+00 0.000000000000000e+00 0.000000000000000e+00
0.000000000000000e+00 0.000000000000000e+00 0.000000000000000e+00
0.000000000000000e+00 0.000000000000000e+00 0.000000000000000e+00
0.000000000000000e+00 0.000000000000000e+00 0.000000000000000e+00
0.000000000000000e+00 0.000000000000000e+00 0.000000000000000e+00
0.000000000000000e+00 0.000000000000000e+00 0.000000000000000e+00
0.000000000000000e+00 0.000000000000000e+00 0.000000000000000e+00
0.000000000000000e+00 0.000000000000000e+00 0.000000000000000e+00
0.000000000000000e+00 0.000000000000000e+00 0.000000000000000e+00
0.000000000000000e+00 0.000000000000000e+00 0.000000000000000e+00
0.000000000000000e+00 0.000000000000000e+00 0.000000000000000e+00
0.000000000000000e+00 0.000000000000000e+00 0.000000000000000e+00
0.000000000000000e+00 0.000000000000000e+00 0.000000000000000e+00
0.000000000000000e+00 0.000000000000000e+00 0.000000000000000e+00
0.000000000000000e+00 0.000000000000000e+00 0.000000000000000e+00
0.000000000000000e+00 0.000000000000000e+00 0.000000000000000e+00
0.000000000000000e+00 0.000000000000000e+00 0.000000000000000e+00
0.000000000000000e+00 0.000000000000000e+00 0.000000000000000e+00
0.000000000000000e+00 0.000000000000000e+00 0.000000000000000e+00
0.000000000000000e+00 0.000000000000000e+00 0.000000000000000e+00
0.000000000000000e+00 0.000000000000000e+00 0.000000000000000e+00
0.000000000000000e+00 0.000000000000000e+00 0.000000000000000e+00
0.000000000000000e+00 0.000000000000000e+00 0.000000000000000e+00
0.000000000000000e+00 0.000000000000000e+00 0.000000000000000e+00
0.000000000000000e+00 0.000000000000000e+00 0.000000000000000e+00
0.000000000000000e+00 0.000000000000000e+00 0.000000000000000e+00
0.000000000000000e+00 0.000000000000000e+00 0.000000000000000e+00
0.000000000000000e+00 0.000000000000000e+00 0.000000000000000e+00
0.000000000000000e+00 0.000000000000000e+00 0.000000000000000e+00
0.000000000000000e+00 0.000000000000000e+00 0.000000000000000e+00
0.000000000000000e+00 0.000000000000000e+00 0.000000000000000e+00
0.000000000000000e+00 0.000000000000000e+00 0.000000000000000e+00
0.000000000000000e+00 0.000000000000000e+00 0.000000000000000e+00
0.000000000000000e+00 0.000000000000000e+00 0.000000000000000e+00
0.000000000000000e+00 0.000000000000000e+00 0.000000000000000e+00
0.000000000000000e+00 0.000000000000000e+00 0.000000000000000e+00
0.000000000000000e+00 0.000000000000000e+00 0.000000000000000e+00
0.000000000000000e+00 0.000000000000000e+00 0.000000000000000e+00
0.000000000000000e+00 0.000000000000000e+00 0.000000000000000e+00
0.000000000000000e+00 0.000000000000000e+00 0.000000000000000e+00
0.000000000000000e+00 0.000000000000000e+00 0.000000000000000e+00
0.000000000000000e+00 0.000000000000000e+00 0.000000000000000e+00
0.000000000000000e+00 0.000000000000000e+00 0.000000000000000e+00
0.000000000000000e+00 0.000000000000000e+00 0.000000000000000e+00
0.000000000000000e+00 0.000000000000000e+00 0.000000000000000e+00
0.000000000000000e+00 0.000000000000000e+00 0.000000000000000e+00
0.000000000000000e+00 0.000000000000000e+00 0.000000000000000e+00
0.000000000000000e+00 0.000000000000000e+00 0.000000000000000e+00
0.000000000000000e+00 0.000000000000000e+00 0.000000000000000e+00
0.000000000000000e+00 0.000000000000000e+00 0.000000000000000e+00
0.000000000000000e+00 0.000000000000000e+00 0.000000000000000e+00
0.000000000000000e+00 0.000000000000000e+00 0.000000000000000e+00
0.000000000000000e+00 0.000000000000000e+00 0.000000000000000e+00
0.000000000000000e+00 0.000000000000000e+00 0.000000000000000e+00
0.000000000000000e+00 0.000000000000000e+00 0.000000000000000e+00
0.000000000000000e+00 0.000000000000000e+00 0.000000000000000e+00
0.000000000000000e+00 0.000000000000000e+00 0.000000000000000e+00
0.000000000000000e+00 0.000000000000000e+00 0.000000000000000e+00
0.000000000000000e+00 0.000000000000000e+00 0.000000000000000e+00
0.000000000000000e+00 0.000000000000000e+00 0.000000000000000e+00
0.000000000000000e+00 0.000000000000000e+00 0.000000000000000e+00
0.000000000000000e+00 0.000000000000000e+00 0.000000000000000e+00
0.000000000000000e+00 0.000000000000000e+00 0.000000000000000e+00
0.000000000000000e+00 0.000000000000000e+00 0.000000000000000e+00
0.000000000000000e+00 0.000000000000000e+00 0.000000000000000e+00
0.000000000000000e+00 0.000000000000000e+00 0.000000000000000e+00
0.000000000000000e+00 0.000000000000000e+00 0.000000000000000e+00
0.000000000000000e+00 0.000000000000000e+00 0.000000000000000e+00
0.000000000000000e+00 0.000000000000000e+00 0.000000000000000e+00
0.000000000000000e+00 0.000000000000000e+00 0.000000000000000e+00
0.000000000000000e+00 0.000000000000000e+00 0.000000000000000e+00
0.000000000000000e+00 0.000000000000000e+00 0.000000000000000e+00
0.000000000000000e+00 0.000000000000000e+00 0.000000000000000e+00
0.000000000000000e+00 0.000000000000000e+00 0.000000000000000e+00
0.000000000000000e+00 0.000000000000000e+00 0.000000000000000e+00
0.000000000000000e+00 0.000000000000000e+00 0.000000000000000e+00
0.000000000000000e+00 0.000000000000000e+00 0.000000000000000e+00
0.000000000000000e+00 0.000000000000000e+00 0.000000000000000e+00
0.000000000000000e+00 0.000000000000000e+00 0.000000000000000e+00
0.000000000000000e+00 0.000000000000000e+00 0.000000000000000e+00
0.000000000000000e+00 0.000000000000000e+00 0.000000000000000e+00
0.000000000000000e+00 0.000000000000000e+00 0.000000000000000e+00
0.000000000000000e+00 0.000000000000000e+00 0.000000000000000e+00
0.000000000000000e+00 0.000000000000000e+00 0.000000000000000e+00
0.000000000000000e+00 0.000000000000000e+00 0.000000000000000e+00
0.000000000000000e+00 0.000000000000000e+00 0.000000000000000e+00
0.000000000000000e+00 0.000000000000000e+00 0.000000000000000e+00
0.000000000000000e+00 0.000000000000000e+00 0.000000000000000e+00
0.000000000000000e+00 0.000000000000000e+00 0.000000000000000e+00
0.000000000000000e+00 0.000000000000000e+00 0.000000000000000e+00
0.000000000000000e+00 0.000000000000000e+00 0.000000000000000e+00
0.000000000000000e+00 0.000000000000000e+00 0.000000000000000e+00
0.000000000000000e+00 0.000000000000000e+00 0.000000000000000e+00
0.000000000000000e+00 0.000000000000000e+00 0.000000000000000e+00
0.000000000000000e+00 0.000000000000000e+00 0.000000000000000e+00
0.000000000000000e+00 0.000000000000000e+00 0.000000000000000e+00
0.000000000000000e+00 0.000000000000000e+00 0.000000000000000e+00
0.000000000000000e+00 0.000000000000000e+00 0.000000000000000e+00
0.000000000000000e+00 0.000000000000000e+00 0.000000000000000e+00
0.000000000000000e+00 0.000000000000000e+00 0.000000000000000e+00
0.000000000000000e+00 0.000000000000000e+00 0.000000000000000e+00
0.000000000000000e+00 0.000000000000000e+00 0.000000000000000e+00
0.000000000000000e+00 0.000000000000000e+00 0.000000000000000e+00
0.000000000000000e+00 0.000000000000000e+00 0.000000000000000e+00
0.000000000000000e+00 0.000000000000000e+00 0.000000000000000e+00
0.000000000000000e+00 0.000000000000000e+00 0.000000000000000e+00
0.000000000000000e+00 0.000000000000000e+00 0.000000000000000e+00
0.000000000000000e+00 0.000000000000000e+00 0.000000000000000e+00
0.000000000000000e+00 0.000000000000000e+00 0.000000000000000e+00
0.000000000000000e+00 0.000000000000000e+00 0.000000000000000e+00
0.000000000000000e+00 0.000000000000000e+00 0.000000000000000e+00
0.000000000000000e+00 0.000000000000000e+00 0.000000000000000e+00
0.000000000000000e+00 0.000000000000000e+00 0.000000000000000e+00
0.000000000000000e+00 0.000000000000000e+00 0.000000000000000e+00
0.000000000000000e+00 0.000000000000000e+00 0.000000000000000e+00
0.000000000000000e+00 0.000000000000000e+00 0.000000000000000e+00
0.000000000000000e+00 0.000000000000000e+00 0.000000000000000e+00
0.000000000000000e+00 0.000000000000000e+00 0.000000000000000e+00
0.000000000000000e+00 0.000000000000000e+00 0.000000000000000e+00
0.000000000000000e+00 0.000000000000000e+00 0.000000000000000e+00
0.000000000000000e+00 0.000000000000000e+00 0.000000000000000e+00
0.000000000000000e+00 0.000000000000000e+00 0.000000000000000e+00
0.000000000000000e+00 0.000000000000000e+00 0.000000000000000e+00
0.000000000000000e+00 0.000000000000000e+00 0.000000000000000e+00
0.000000000000000e+00 0.000000000000000e+00 0.000000000000000e+00
0.000000000000000e+00 0.000000000000000e+00 0.000000000000000e+00
0.000000000000000e+00 0.000000000000000e+00 0.000000000000000e+00
0.000000000000000e+00 0.000000000000000e+00 0.000000000000000e+00
0.000000000000000e+00 0.000000000000000e+00 0.000000000000000e+00
0.000000000000000e+00 0.000000000000000e+00 0.000000000000000e+00
0.000000000000000e+00 0.000000000000000e+00 0.000000000000000e+00
0.000000000000000e+00 0.000000000000000e+00 0.000000000000000e+00
0.000000000000000e+00 0.000000000000000e+00 0.000000000000000e+00
0.000000000000000e+00 0.000000000000000e+00 0.000000000000000e+00
0.000000000000000e+00 0.000000000000000e+00 0.000000000000000e+00
0.000000000000000e+00 0.000000000000000e+00 0.000000000000000e+00
0.000000000000000e+00 0.000000000000000e+00 0.000000000000000e+00
0.000000000000000e+00 0.000000000000000e+00 0.000000000000000e+00
0.000000000000000e+00 0.000000000000000e+00 0.000000000000000e+00
0.000000000000000e+00 0.000000000000000e+00 0.000000000000000e+00
0.000000000000000e+00 0.000000000000000e+00 0.000000000000000e+00
0.000000000000000e+00 0.000000000000000e+00 0.000000000000000e+00
0.000000000000000e+00 0.000000000000000e+00 0.000000000000000e+00
0.000000000000000e+00 0.000000000000000e+00 0.000000000000000e+00
0.000000000000000e+00 0.000000000000000e+00 0.000000000000000e+00
0.000000000000000e+00 0.000000000000000e+00 0.000000000000000e+00
0.000000000000000e+00 0.000000000000000e+00 0.000000000000000e+00
0.000000000000000e+00 0.000000000000000e+00 0.000000000000000e+00
0.000000000000000e+00 0.000000000000000e+00 0.000000000000000e+00
0.000000000000000e+00 0.000000000000000e+00 0.000000000000000e+00
0.000000000000000e+00 0.000000000000000e+00 0.000000000000000e+00
0.000000000000000e+00 0.000000000000000e+00 0.000000000000000e+00
0.000000000000000e+00 0.000000000000000e+00 0.000000000000000e+00
0.000000000000000e+00 0.000000000000000e+00 0.000000000000000e+00
0.000000000000000e+00 0.000000000000000e+00 0.000000000000000e+00
0.000000000000000e+00 0.000000000000000e+00 0.000000000000000e+00
0.000000000000000e+00 0.000000000000000e+00 0.000000000000000e+00
0.000000000000000e+00 0.000000000000000e+00 0.000000000000000e+00
0.000000000000000e+00 0.000000000000000e+00 0.000000000000000e+00
0.000000000000000e+00 0.000000000000000e+00 0.000000000000000e+00
0.000000000000000e+00 0.000000000000000e+00 0.000000000000000e+00
0.000000000000000e+00 0.000000000000000e+00 0.000000000000000e+00
0.000000000000000e+00 0.000000000000000e+00 0.000000000000000e+00
0.000000000000000e+00 0.000000000000000e+00 0.000000000000000e+00
0.000000000000000e+00 0.000000000000000e+00 0.000000000000000e+00
0.000000000000000e+00 0.000000000000000e+00 0.000000000000000e+00
0.000000000000000e+00 0.000000000000000e+00 0.000000000000000e+00
0.000000000000000e+00 0.000000000000000e+00 0.000000000000000e+00
0.000000000000000e+00 0.000000000000000e+00 0.000000000000000e+00
0.000000000000000e+00 0.000000000000000e+00 0.000000000000000e+00
0.000000000000000e+00 0.000000000000000e+00 0.000000000000000e+00
0.000000000000000e+00 0.000000000000000e+00 0.000000000000000e+00
0.000000000000000e+00 0.000000000000000e+00 0.000000000000000e+00
0.000000000000000e+00 0.000000000000000e+00 0.000000000000000e+00
0.000000000000000e+00 0.000000000000000e+00 0.000000000000000e+00
0.000000000000000e+00 0.000000000000000e+00 0.000000000000000e+00
0.000000000000000e+00 0.000000000000000e+00 0.000000000000000e+00
0.000000000000000e+00 0.000000000000000e+00 0.000000000000000e+00
0.000000000000000e+00 0.000000000000000e+00 0.000000000000000e+00
0.000000000000000e+00 0.000000000000000e+00 0.000000000000000e+00
0.000000000000000e+00 0.000000000000000e+00 0.000000000000000e+00
0.000000000000000e+00 0.000000000000000e+00 0.000000000000000e+00
0.000000000000000e+00 0.000000000000000e+00 0.000000000000000e+00
0.000000000000000e+00 0.000000000000000e+00 0.000000000000000e+00
0.000000000000000e+00 0.000000000000000e+00 0.000000000000000e+00
0.000000000000000e+00 0.000000000000000e+00 0.000000000000000e+00
0.000000000000000e+00 0.000000000000000e+00 0.000000000000000e+00
0.000000000000000e+00 0.000000000000000e+00 0.000000000000000e+00
0.000000000000000e+00 0.000000000000000e+00 0.000000000000000e+00
0.000000000000000e+00 0.000000000000000e+00 0.000000000000000e+00
0.000000000000000e+00 0.000000000000000e+00 0.000000000000000e+00
0.000000000000000e+00 0.000000000000000e+00 0.000000000000000e+00
0.000000000000000e+00 0.000000000000000e+00 0.000000000000000e+00
0.000000000000000e+00 0.000000000000000e+00 0.000000000000000e+00
0.000000000000000e+00 0.000000000000000e+00 0.000000000000000e+00
0.000000000000000e+00 0.000000000000000e+00 0.000000000000000e+00
0.000000000000000e+00 0.000000000000000e+00 0.000000000000000e+00
0.000000000000000e+00 0.000000000000000e+00 0.000000000000000e+00
0.000000000000000e+00 0.000000000000000e+00 0.000000000000000e+00
0.000000000000000e+00 0.000000000000000e+00 0.000000000000000e+00
0.000000000000000e+00 0.000000000000000e+00 0.000000000000000e+00
0.000000000000000e+00 0.000000000000000e+00 0.000000000000000e+00
0.000000000000000e+00 0.000000000000000e+00 0.000000000000000e+00
0.000000000000000e+00 0.000000000000000e+00 0.000000000000000e+00
0.000000000000000e+00 0.000000000000000e+00 0.000000000000000e+00
0.000000000000000e+00 0.000000000000000e+00 0.000000000000000e+00