# vtk DataFile Version 3.0
# Dislocation lines converted from MoDELib file
ASCII
DATASET UNSTRUCTURED_GRID
POINTS 3000 double
-1.429999999999877e+00  3.863858941524650e+02 -2.918975276816622e+03
-1.429999999999897e+00 -3.863858941524674e+02 -2.918975276816622e+03
-1.429999999999897e+00  0.000000000000000e+00 -2.918975276816622e+03
-1.430000000000221e+00  0.000000000000000e+00  2.918975276816619e+03
-1.430000000000221e+00 -3.863858941524674e+02  2.918975276816619e+03
-1.430000000000201e+00  3.863858941524653e+02  2.918975276816619e+03
-1.148581411444983e+03  1.104412295210384e+00 -2.918975276816622e+03
-1.148565410929294e+03 -1.049016263564983e+00 -2.918975276816622e+03
-1.148540436182579e+03 -1.737550022212095e+00 -2.918975276816622e+03
-1.148574728677897e+03 -3.939759029000403e+00 -2.918975276816622e+03
-1.148552053085303e+03 -5.250084892315046e+00 -2.918975276816622e+03
-1.148555680996429e+03 -6.328167140900810e+00 -2.918975276816622e+03
-1.148529859449706e+03 -8.209662834765835e+00 -2.918975276816622e+03
-1.148518103700049e+03 -1.300848422464194e+01 -2.918975276816622e+03
-1.148506105472423e+03 -1.368636528727601e+01 -2.918975276816622e+03
-1.148511688715440e+03 -1.660991744544019e+01 -2.918975276816622e+03
-1.148443323531024e+03 -2.010195765375597e+01 -2.918975276816622e+03
-1.148434150729216e+03 -2.289836093773415e+01 -2.918975276816622e+03
-1.148321814188894e+03 -2.693457535315741e+01 -2.918975276816622e+03
-1.148305223351043e+03 -2.804645666628008e+01 -2.918975276816622e+03
-1.148127874079362e+03 -3.496504764529580e+01 -2.918975276816622e+03
-1.148075094364633e+03 -3.587201821302411e+01 -2.918975276816622e+03
-1.148073786331786e+03 -3.841337306240002e+01 -2.918975276816622e+03
-1.147950753632697e+03 -4.024111779076498e+01 -2.918975276816622e+03
-1.148009320083901e+03 -4.108024643271280e+01 -2.918975276816622e+03
-1.147852536368601e+03 -4.334469103208711e+01 -2.918975276816622e+03
-1.147857071716651e+03 -4.517192110051481e+01 -2.918975276816622e+03
-1.147695863580822e+03 -4.976228782874292e+01 -2.918975276816622e+03
-1.147736508926294e+03 -5.037199101226035e+01 -2.918975276816622e+03
-1.147499317036831e+03 -5.217068625899204e+01 -2.918975276816622e+03
-1.147702045980657e+03 -5.412657386949478e+01 -2.918975276816622e+03
-1.147700952253873e+03 -5.430306066019440e+01 -2.918975276816622e+03
-1.147642995776179e+03 -5.592493031788629e+01 -2.918975276816622e+03
-1.147671669384414e+03 -5.844986541985957e+01 -2.918975276816622e+03
-1.147633280105309e+03 -6.014456912911309e+01 -2.918975276816622e+03
-1.147665813379691e+03 -6.137936740262930e+01 -2.918975276816622e+03
-1.147637668353087e+03 -6.331869653700880e+01 -2.918975276816622e+03
-1.147687321331380e+03 -6.434191831405961e+01 -2.918975276816622e+03
-1.147679949702220e+03 -6.632572171716171e+01 -2.918975276816622e+03
-1.147779089880997e+03 -6.737916978360258e+01 -2.918975276816622e+03
-1.147741305794940e+03 -6.992631422435122e+01 -2.918975276816622e+03
-1.147796479004048e+03 -7.058076027388981e+01 -2.918975276816622e+03
-1.147726140947654e+03 -7.213374929794659e+01 -2.918975276816622e+03
-1.147842660959577e+03 -7.419155869665757e+01 -2.918975276816622e+03
-1.147735416266029e+03 -7.527474433175188e+01 -2.918975276816622e+03
-1.147829728796183e+03 -7.630184464213764e+01 -2.918975276816622e+03
-1.147729566358506e+03 -7.834243331932572e+01 -2.918975276816622e+03
-1.147845693094502e+03 -8.024532280904806e+01 -2.918975276816622e+03
-1.147744393612699e+03 -8.134556903715131e+01 -2.918975276816622e+03
-1.147835716255428e+03 -8.335663717184541e+01 -2.918975276816622e+03
-1.147731447182545e+03 -8.500232823864516e+01 -2.918975276816622e+03
-1.147799074110462e+03 -8.765952480483709e+01 -2.918975276816622e+03
-1.147717409799437e+03 -8.953673088808308e+01 -2.918975276816622e+03
-1.147755906468029e+03 -9.040069480636326e+01 -2.918975276816622e+03
-1.147694715017830e+03 -9.210369332781097e+01 -2.918975276816622e+03
-1.147723762084129e+03 -9.486754853360499e+01 -2.918975276816622e+03
-1.147681806444572e+03 -9.555463602818229e+01 -2.918975276816622e+03
-1.147699644325503e+03 -9.844895859261642e+01 -2.918975276816622e+03
-1.147642744906302e+03 -1.003117201450549e+02 -2.918975276816622e+03
-1.147671616841144e+03 -1.013935723928386e+02 -2.918975276816622e+03
-1.147609776681802e+03 -1.032458249196514e+02 -2.918975276816622e+03
-1.147647514471727e+03 -1.042336338429585e+02 -2.918975276816622e+03
-1.147570473390259e+03 -1.061858851312320e+02 -2.918975276816622e+03
-1.147625056747312e+03 -1.072556677058161e+02 -2.918975276816622e+03
-1.147523311185133e+03 -1.097246546035682e+02 -2.918975276816622e+03
-1.147589685752970e+03 -1.105171571846464e+02 -2.918975276816622e+03
-1.147468914346426e+03 -1.122576676212468e+02 -2.918975276816622e+03
-1.147551214684960e+03 -1.141378212655784e+02 -2.918975276816622e+03
-1.147523319927748e+03 -1.142208382660914e+02 -2.918975276816622e+03
-1.147593923679727e+03 -1.157551477441692e+02 -2.918975276816622e+03
-1.147498818805558e+03 -1.183434799638613e+02 -2.918975276816622e+03
-1.147553530826650e+03 -1.201296809715689e+02 -2.918975276816622e+03
-1.147498865051461e+03 -1.213372231481593e+02 -2.918975276816622e+03
-1.147535692942517e+03 -1.234740449787949e+02 -2.918975276816622e+03
-1.147514036773847e+03 -1.248128101276452e+02 -2.918975276816622e+03
-1.147499984961692e+03 -1.295945757972378e+02 -2.918975276816622e+03
-1.147516428673328e+03 -1.303465055056144e+02 -2.918975276816622e+03
-1.147501081234544e+03 -1.322153053380806e+02 -2.918975276816622e+03
-1.147500318032259e+03 -1.341605590291616e+02 -2.918975276816622e+03
-1.147515508969067e+03 -1.344624164146209e+02 -2.918975276816622e+03
-1.147509813892355e+03 -1.357672709387753e+02 -2.918975276816622e+03
-1.147567209415140e+03 -1.384013920492419e+02 -2.918975276816622e+03
-1.147578532220553e+03 -1.400557038025896e+02 -2.918975276816622e+03
-1.147590052698033e+03 -1.412651530574515e+02 -2.918975276816622e+03
-1.147625952158640e+03 -1.431672127122124e+02 -2.918975276816622e+03
-1.147622686415704e+03 -1.441340430560280e+02 -2.918975276816622e+03
-1.147677142452546e+03 -1.461360569743376e+02 -2.918975276816622e+03
-1.147652241495866e+03 -1.471495906590398e+02 -2.918975276816622e+03
-1.147732935984414e+03 -1.496372909824327e+02 -2.918975276816622e+03
-1.147701850235422e+03 -1.503403329912800e+02 -2.918975276816622e+03
-1.147778029636837e+03 -1.520377712335007e+02 -2.918975276816622e+03
-1.147755034855723e+03 -1.540306775428500e+02 -2.918975276816622e+03
-1.147776569284090e+03 -1.540665853234963e+02 -2.918975276816622e+03
-1.147748216360523e+03 -1.559595899875345e+02 -2.918975276816622e+03
-1.147811434453662e+03 -1.601733184260203e+02 -2.918975276816622e+03
-1.147786718123042e+03 -1.612307223244766e+02 -2.918975276816622e+03
-1.147851274711094e+03 -1.631928721576240e+02 -2.918975276816622e+03
-1.147839760498287e+03 -1.647274734270130e+02 -2.918975276816622e+03
-1.147956733040518e+03 -1.723220643031277e+02 -2.918975276816622e+03
-1.147950955234086e+03 -1.756643006787480e+02 -2.918975276816622e+03
-1.147993014842328e+03 -1.783160689953725e+02 -2.918975276816622e+03
-1.148013819744441e+03 -1.802142117690433e+02 -2.918975276816622e+03
-1.148020704022729e+03 -1.812735250999626e+02 -2.918975276816622e+03
-1.148055828671125e+03 -1.831419188199355e+02 -2.918975276816622e+03
-1.148052785623828e+03 -1.847064556206825e+02 -2.918975276816622e+03
-1.148052051068044e+03 -1.894915167104971e+02 -2.918975276816622e+03
-1.148063563985607e+03 -1.901301279536345e+02 -2.918975276816622e+03
-1.148050653977365e+03 -1.919394993060475e+02 -2.918975276816622e+03
-1.148028336460991e+03 -1.939044642424947e+02 -2.918975276816622e+03
-1.148038586823807e+03 -1.943010722313435e+02 -2.918975276816622e+03
-1.148010231371207e+03 -1.960466054525416e+02 -2.918975276816622e+03
-1.148038762376646e+03 -2.000598294776739e+02 -2.918975276816622e+03
-1.147990593364253e+03 -2.010802373667880e+02 -2.918975276816622e+03
-1.148054317342873e+03 -2.030827490155255e+02 -2.918975276816622e+03
-1.147985873718387e+03 -2.040534627654457e+02 -2.918975276816622e+03
-1.148019038429731e+03 -2.060226202609468e+02 -2.918975276816622e+03
-1.147976762713898e+03 -2.070713852721384e+02 -2.918975276816622e+03
-1.148018127319528e+03 -2.095591436341770e+02 -2.918975276816622e+03
-1.147959747356905e+03 -2.103851180704727e+02 -2.918975276816622e+03
-1.147963659763487e+03 -2.124290534934286e+02 -2.918975276816622e+03
-1.147892493301846e+03 -2.156029890184703e+02 -2.918975276816622e+03
-1.147892206071723e+03 -2.182331714075551e+02 -2.918975276816622e+03
-1.147816256647401e+03 -2.201117501955888e+02 -2.918975276816622e+03
-1.147822445764570e+03 -2.212146778671636e+02 -2.918975276816622e+03
-1.147742196150317e+03 -2.230834361804744e+02 -2.918975276816622e+03
-1.147710712552311e+03 -2.246479351844981e+02 -2.918975276816622e+03
-1.147530409408671e+03 -2.294588400429383e+02 -2.918975276816622e+03
-1.147462944095836e+03 -2.301898766975309e+02 -2.918975276816622e+03
-1.147394728177093e+03 -2.319889719768751e+02 -2.918975276816622e+03
-1.147187451506734e+03 -2.337589109267188e+02 -2.918975276816622e+03
-1.147163322974677e+03 -2.338776498128183e+02 -2.918975276816622e+03
-1.147457039771660e+03 -2.355484244905788e+02 -2.918975276816622e+03
-1.147524432232840e+03 -2.381242141431264e+02 -2.918975276816622e+03
-1.147695920174918e+03 -2.401084796666865e+02 -2.918975276816622e+03
-1.147665796777112e+03 -2.411567686841656e+02 -2.918975276816622e+03
-1.147807107122108e+03 -2.431449876410108e+02 -2.918975276816622e+03
-1.147779820850514e+03 -2.444597322974089e+02 -2.918975276816622e+03
-1.147915496450865e+03 -2.470205244791816e+02 -2.918975276816622e+03
-1.147900503467775e+03 -2.470657478271049e+02 -2.918975276816622e+03
-1.147950440878272e+03 -2.498192608387517e+02 -2.918975276816622e+03
-1.147852267937235e+03 -2.508425742666761e+02 -2.918975276816622e+03
-1.147933423951264e+03 -2.516614796599836e+02 -2.918975276816622e+03
-1.147885683494570e+03 -2.538871017087585e+02 -2.918975276816622e+03
[...]
POINT_DATA 3000
VECTORS PK_force double
0.000000000000000e+00 0.000000000000000e+00 0.000000000000000e+00
0.000000000000000e+00 0.000000000000000e+00 0.000000000000000e+00
0.000000000000000e+00 0.000000000000000e+00 0.000000000000000e+00
0.000000000000000e+00 0.000000000000000e+00 0.000000000000000e+00
0.000000000000000e+00 0.000000000000000e+00 0.000000000000000e+00
0.000000000000000e+00 0.000000000000000e+00 0.000000000000000e+00
0.000000000000000e+00 0.000000000000000e+00 0.000000000000000e+00
0.000000000000000e+00 0.000000000000000e+00 0.000000000000000e+00
0.000000000000000e+00 0.000000000000000e+00 0.000000000000000e+00
0.000000000000000e+00 0.000000000000000e+00 0.000000000000000e+00
0.000000000000000e+00 0.000000000000000e+00 0.000000000000000e+00
0.000000000000000e+00 0.000000000000000e+00 0.000000000000000e+00
0.000000000000000e+00 0.000000000000000e+00 0.000000000000000e+00
0.000000000000000e+00 0.000000000000000e+00 0.000000000000000e+00
0.000000000000000e+00 0.000000000000000e+00 0.000000000000000e+00
0.000000000000000e+00 0.000000000000000e+00 0.000000000000000e+00
0.000000000000000e+00 0.000000000000000e+00 0.000000000000000e+00
0.000000000000000e+00 0.000000000000000e+00 0.000000000000000e+00
0.000000000000000e+00 0.000000000000000e+00 0.000000000000000e+00
0.000000000000000e+00 0.000000000000000e+00 0.000000000000000e+00
0.000000000000000e+00 0.000000000000000e+00 0.000000000000000e+00
0.000000000000000e+00 0.000000000000000e+00 0.000000000000000e+00
0.000000000000000e+00 0.000000000000000e+00 0.000000000000000e+00
0.000000000000000e+00 0.000000000000000e+00 0.000000000000000e+00
0.000000000000000e+00 0.000000000000000e+00 0.000000000000000e+00
0.000000000000000e+00 0.000000000000000e+00 0.000000000000000e+00
0.000000000000000e+00 0.000000000000000e+00 0.000000000000000e+00
0.000000000000000e+00 0.000000000000000e+00 0.000000000000000e+00
0.000000000000000e+00 0.000000000000000e+00 0.000000000000000e+00
0.000000000000000e+00 0.000000000000000e+00 0.000000000000000e+00
0.000000000000000e+00 0.000000000000000e+00 0.000000000000000e+00
0.000000000000000e+00 0.000000000000000e+00 0.000000000000000e+00
0.000000000000000e+00 0.000000000000000e+00 0.000000000000000e+00
0.000000000000000e+00 0.000000000000000e+00 0.000000000000000e+00
0.000000000000000e+00 0.000000000000000e+00 0.000000000000000e+00
0.000000000000000e+00 0.000000000000000e+00 0.000000000000000e+00
0.000000000000000e+00 0.000000000000000e+00 0.000000000000000e+00
0.000000000000000e+00 0.000000000000000e+00 0.000000000000000e+00
0.000000000000000e+00 0.000000000000000e+00 0.000000000000000e+00
0.000000000000000e+00 0.000000000000000e+00 0.000000000000000e+00
0.000000000000000e+00 0.000000000000000e+00 0.000000000000000e+00
0.000000000000000e+00 0.000000000000000e+00 0.000000000000000e+00
0.000000000000000e+00 0.000000000000000e+00 0.000000000000000e+00
0.000000000000000e+00 0.000000000000000e+00 0.000000000000000e+00
0.000000000000000e+00 0.000000000000000e+00 0.000000000000000e+00
0.000000000000000e+00 0.000000000000000e+00 0.000000000000000e+00
0.000000000000000e+00 0.000000000000000e+00 0.000000000000000e+00
0.000000000000000e+00 0.000000000000000e+00 0.000000000000000e+00
0.000000000000000e+00 0.000000000000000e+00 0.000000000000000e+00
0.000000000000000e+00 0.000000000000000e+00 0.000000000000000e+00
0.000000000000000e+00 0.000000000000000e+00 0.000000000000000e+00
0.000000000000000e+00 0.000000000000000e+00 0.000000000000000e+00
0.000000000000000e+00 0.000000000000000e+00 0.000000000000000e+00
0.000000000000000e+00 0.000000000000000e+00 0.000000000000000e+00
0.000000000000000e+00 0.000000000000000e+00 0.000000000000000e+00
0.000000000000000e+00 0.000000000000000e+00 0.000000000000000e+00
0.000000000000000e+00 0.000000000000000e+00 0.000000000000000e+00
0.000000000000000e+00 0.000000000000000e+00 0.000000000000000e+00
0.000000000000000e+00 0.000000000000000e+00 0.000000000000000e+00
0.000000000000000e+00 0.000000000000000e+00 0.000000000000000e+00
0.000000000000000e+00 0.000000000000000e+00 0.000000000000000e+00
0.000000000000000e+00 0.000000000000000e+00 0.000000000000000e+00
0.000000000000000e+00 0.000000000000000e+00 0.000000000000000e+00
0.000000000000000e+00 0.000000000000000e+00 0.000000000000000e+00
0.000000000000000e+00 0.000000000000000e+00 0.000000000000000e+00
0.000000000000000e+00 0.000000000000000e+00 0.000000000000000e+00
0.000000000000000e+00 0.000000000000000e+00 0.000000000000000e+00
0.000000000000000e+00 0.000000000000000e+00 0.000000000000000e+00
0.000000000000000e+00 0.000000000000000e+00 0.000000000000000e+00
0.000000000000000e+00 0.000000000000000e+00 0.000000000000000e+00
0.000000000000000e+00 0.000000000000000e+00 0.000000000000000e+00
0.000000000000000e+00 0.000000000000000e+00 0.000000000000000e+00
0.000000000000000e+00 0.000000000000000e+00 0.000000000000000e+00
0.000000000000000e+00 0.000000000000000e+00 0.000000000000000e+00
0.000000000000000e+00 0.000000000000000e+00 0.000000000000000e+00
0.000000000000000e+00 0.000000000000000e+00 0.000000000000000e+00
0.000000000000000e+00 0.000000000000000e+00 0.000000000000000e+00
0.000000000000000e+00 0.000000000000000e+00 0.000000000000000e+00
0.000000000000000e+00 0.000000000000000e+00 0.000000000000000e+00
0.000000000000000e+00 0.000000000000000e+00 0.000000000000000e+00
0.000000000000000e+00 0.000000000000000e+00 0.000000000000000e+00
0.000000000000000e+00 0.000000000000000e+00 0.000000000000000e+00
0.000000000000000e+00 0.000000000000000e+00 0.000000000000000e+00
0.000000000000000e+00 0.000000000000000e+00 0.000000000000000e+00
0.000000000000000e+00 0.000000000000000e+00 0.000000000000000e+00
0.000000000000000e+00 0.000000000000000e+00 0.000000000000000e+00
0.000000000000000e+00 0.000000000000000e+00 0.000000000000000e+00
0.000000000000000e+00 0.000000000000000e+00 0.000000000000000e+00
0.000000000000000e+00 0.000000000000000e+00 0.000000000000000e+00
0.000000000000000e+00 0.000000000000000e+00 0.000000000000000e+00
0.000000000000000e+00 0.000000000000000e+00 0.000000000000000e+00
0.000000000000000e+00 0.000000000000000e+00 0.000000000000000e+00
0.000000000000000e+00 0.000000000000000e+00 0.000000000000000e+00
0.000000000000000e+00 0.000000000000000e+00 0.000000000000000e+00
0.000000000000000e+00 0.000000000000000e+00 0.000000000000000e+00
0.000000000000000e+00 0.000000000000000e+00 0.000000000000000e+00
0.000000000000000e+00 0.000000000000000e+00 0.000000000000000e+00
0.000000000000000e+00 0.000000000000000e+00 0.000000000000000e+00
0.000000000000000e+00 0.000000000000000e+00 0.000000000000000e+00
0.000000000000000e+00 0.000000000000000e+00 0.000000000000000e+00
0.000000000000000e+00 0.000000000000000e+00 0.000000000000000e+00
0.000000000000000e+00 0.000000000000000e+00 0.000000000000000e+00
0.000000000000000e+00 0.000000000000000e+00 0.000000000000000e+00
0.000000000000000e+00 0.000000000000000e+00 0.000000000000000e+00
0.000000000000000e+00 0.000000000000000e+00 0.000000000000000e+00
0.000000000000000e+00 0.000000000000000e+00 0.000000000000000e+00
0.000000000000000e+00 0.000000000000000e+00 0.000000000000000e+00
0.000000000000000e+00 0.000000000000000e+00 0.000000000000000e+00
0.000000000000000e+00 0.000000000000000e+00 0.000000000000000e+00
0.000000000000000e+00 0.000000000000000e+00 0.000000000000000e+00
0.000000000000000e+00 0.000000000000000e+00 0.000000000000000e+00
0.000000000000000e+00 0.000000000000000e+00 0.000000000000000e+00
0.000000000000000e+00 0.000000000000000e+00 0.000000000000000e+00
0.000000000000000e+00 0.000000000000000e+00 0.000000000000000e+00
0.000000000000000e+00 0.000000000000000e+00 0.000000000000000e+00
0.000000000000000e+00 0.000000000000000e+00 0.000000000000000e+00
0.000000000000000e+00 0.000000000000000e+00 0.000000000000000e+00
0.000000000000000e+00 0.000000000000000e+00 0.000000000000000e+00
0.000000000000000e+00 0.000000000000000e+00 0.000000000000000e+00
0.000000000000000e+00 0.000000000000000e+00 0.000000000000000e+00
0.000000000000000e+00 0.000000000000000e+00 0.000000000000000e+00
0.000000000000000e+00 0.000000000000000e+00 0.000000000000000e+00
0.000000000000000e+00 0.000000000000000e+00 0.000000000000000e+00
0.000000000000000e+00 0.000000000000000e+00 0.000000000000000e+00
0.000000000000000e+00 0.000000000000000e+00 0.000000000000000e+00
0.000000000000000e+00 0.000000000000000e+00 0.000000000000000e+00
0.000000000000000e+00 0.000000000000000e+00 0.000000000000000e+00
0.000000000000000e+00 0.000000000000000e+00 0.000000000000000e+00
0.000000000000000e+00 0.000000000000000e+00 0.000000000000000e+00
0.000000000000000e+00 0.000000000000000e+00 0.000000000000000e+00
0.000000000000000e+00 0.000000000000000e+00 0.000000000000000e+00
0.000000000000000e+00 0.000000000000000e+00 0.000000000000000e+00
0.000000000000000e+00 0.000000000000000e+00 0.000000000000000e+00
0.000000000000000e+00 0.000000000000000e+00 0.000000000000000e+00
0.000000000000000e+00 0.000000000000000e+00 0.000000000000000e+00
0.000000000000000e+00 0.000000000000000e+00 0.000000000000000e+00
0.000000000000000e+00 0.000000000000000e+00 0.000000000000000e+00
0.000000000000000e+00 0.000000000000000e+00 0.000000000000000e+00
0.000000000000000e+00 0.000000000000000e+00 0.000000000000000e+00
0.000000000000000e+00 0.000000000000000e+00 0.000000000000000e+00
0.000000000000000e+00 0.000000000000000e+00 0.000000000000000e+00
0.000000000000000e+00 0.000000000000000e+00 0.000000000000000e+00
0.000000000000000e+00 0.000000000000000e+00 0.000000000000000e+00
0.000000000000000e+00 0.000000000000000e+00 0.000000000000000e+00
0.000000000000000e+00 0.000000000000000e+00 0.000000000000000e+00
0.000000000000000e+00 0.000000000000000e+00 0.000000000000000e+00
0.000000000000000e+00 0.000000000000000e+00 0.000000000000000e+00
0.000000000000000e+00 0.000000000000000e+00 0.000000000000000e+00
0.000000000000000e+00 0.000000000000000e+00 0.000000000000000e+00
0.000000000000000e+00 0.000000000000000e+00 0.000000000000000e+00
0.000000000000000e+00 0.000000000000000e+00 0.000000000000000e+00
0.000000000000000e+00 0.000000000000000e+00 0.000000000000000e+00
0.000000000000000e+00 0.000000000000000e+00 0.000000000000000e+00
0.000000000000000e+00 0.000000000000000e+00 0.000000000000000e+00
0.000000000000000e+00 0.000000000000000e+00 0.000000000000000e+00
0.000000000000000e+00 0.000000000000000e+00 0.000000000000000e+00
0.000000000000000e+00 0.000000000000000e+00 0.000000000000000e+00
0.000000000000000e+00 0.000000000000000e+00 0.000000000000000e+00
0.000000000000000e+00 0.000000000000000e+00 0.000000000000000e+00
0.000000000000000e+00 0.000000000000000e+00 0.000000000000000e+00
0.000000000000000e+00 0.000000000000000e+00 0.000000000000000e+00
0.000000000000000e+00 0.000000000000000e+00 0.000000000000000e+00
0.000000000000000e+00 0.000000000000000e+00 0.000000000000000e+00
0.000000000000000e+00 0.000000000000000e+00 0.000000000000000e+00
0.000000000000000e+00 0.000000000000000e+00 0.000000000000000e+00
0.000000000000000e+00 0.000000000000000e+00 0.000000000000000e+00
0.000000000000000e+00 0.000000000000000e+00 0.000000000000000e+00
0.000000000000000e+00 0.000000000000000e+00 0.000000000000000e+00
0.000000000000000e+00 0.000000000000000e+00 0.000000000000000e+00
0.000000000000000e+00 0.000000000000000e+00 0.000000000000000e+00
0.000000000000000e+00 0.000000000000000e+00 0.000000000000000e+00
0.000000000000000e+00 0.000000000000000e+00 0.000000000000000e+00
0.000000000000000e+00 0.000000000000000e+00 0.000000000000000e+00
0.000000000000000e+00 0.000000000000000e+00 0.000000000000000e+00
0.000000000000000e+00 0.000000000000000e+00 0.000000000000000e+00
0.000000000000000e+00 0.000000000000000e+00 0.000000000000000e+00
0.000000000000000e+00 0.000000000000000e+00 0.000000000000000e+00
0.000000000000000e+00 0.000000000000000e+00 0.000000000000000e+00
0.000000000000000e+00 0.000000000000000e+00 0.000000000000000e+00
0.000000000000000e+00 0.000000000000000e+00 0.000000000000000e+00
0.000000000000000e+00 0.000000000000000e+00 0.000000000000000e+00
0.000000000000000e+00 0.000000000000000e+00 0.000000000000000e+00
0.000000000000000e+00 0.000000000000000e+00 0.000000000000000e+00
0.000000000000000e+00 0.000000000000000e+00 0.000000000000000e+00
0.000000000000000e+00 0.000000000000000e+00 0.000000000000000e+00
0.000000000000000e+00 0.000000000000000e+00 0.000000000000000e+00
0.000000000000000e+00 0.000000000000000e+00 0.000000000000000e+00
0.000000000000000e+00 0.000000000000000e+00 0.000000000000000e+00
0.000000000000000e+00 0.000000000000000e+00 0.000000000000000e+00
0.000000000000000e+00 0.000000000000000e+00 0.000000000000000e+00
0.000000000000000e+00 0.000000000000000e+00 0.000000000000000e+00
0.000000000000000e+00 0.000000000000000e+00 0.000000000000000e+00
0.000000000000000e+00 0.000000000000000e+00 0.000000000000000e+00
0.000000000000000e+00 0.000000000000000e+00 0.000000000000000e+00
0.000000000000000e+00 0.000000000000000e+00 0.000000000000000e+00
0.000000000000000e+00 0.000000000000000e+00 0.000000000000000e+00
0.000000000000000e+00 0.000000000000000e+00 0.000000000000000e+00
0.000000000000000e+00 0.000000000000000e+00 0.000000000000000e+00
0.000000000000000e+00 0.000000000000000e+00 0.000000000000000e+00
0.000000000000000e+00 0.000000000000000e+00 0.000000000000000e+00
0.000000000000000e+00 0.000000000000000e+00 0.000000000000000e+00
0.000000000000000e+00 0.000000000000000e+00 0.000000000000000e+00
0.000000000000000e+00 0.000000000000000e+00 0.000000000000000e+00
0.000000000000000e+00 0.000000000000000e+00 0.000000000000000e+00
0.000000000000000e+00 0.000000000000000e+00 0.000000000000000e+00
0.000000000000000e+00 0.000000000000000e+00 0.000000000000000e+00
0.000000000000000e+00 0.000000000000000e+00 0.000000000000000e+00
0.000000000000000e+00 0.000000000000000e+00 0.000000000000000e+00
0.000000000000000e+00 0.000000000000000e+00 0.000000000000000e+00
0.000000000000000e+00 0.000000000000000e+00 0.000000000000000e+00
0.000000000000000e+00 0.000000000000000e+00 0.000000000000000e+00
0.000000000000000e+00 0.000000000000000e+00 0.000000000000000e+00
0.000000000000000e+00 0.000000000000000e+00 0.000000000000000e+00
0.000000000000000e+00 0.000000000000000e+00 0.000000000000000e+00
0.000000000000000e+00 0.000000000000000e+00 0.000000000000000e+00
0.000000000000000e+00 0.000000000000000e+00 0.000000000000000e+00
0.000000000000000e+00 0.000000000000000e+00 0.000000000000000e+00
0.000000000000000e+00 0.000000000000000e+00 0.000000000000000e+00
0.000000000000000e+00 0.000000000000000e+00 0.000000000000000e+00
0.000000000000000e+00 0.000000000000000e+00 0.000000000000000e+00
0.000000000000000e+00 0.000000000000000e+00 0.000000000000000e+00
0.000000000000000e+00 0.000000000000000e+00 0.000000000000000e+00
0.000000000000000e+00 0.000000000000000e+00 0.000000000000000e+00
0.000000000000000e+00 0.000000000000000e+00 0.000000000000000e+00
0.000000000000000e+00 0.000000000000000e+00 0.000000000000000e+00
0.000000000000000e+00 0.000000000000000e+00 0.000000000000000e+00
0.000000000000000e+00 0.000000000000000e+00 0.000000000000000e+00
0.000000000000000e+00 0.000000000000000e+00 0.000000000000000e+00
0.000000000000000e+00 0.000000000000000e+00 0.000000000000000e+00
0.000000000000000e+00 0.000000000000000e+00 0.000000000000000e+00
0.000000000000000e+00 0.000000000000000e+00 0.000000000000000e+00
0.000000000000000e+00 0.000000000000000e+00 0.000000000000000e+00
0.000000000000000e+00 0.000000000000000e+00 0.000000000000000e+00
0.000000000000000e+00 0.000000000000000e+00 0.000000000000000e+00
0.000000000000000e+00 0.000000000000000e+00 0.000000000000000e+00
0.000000000000000e+00 0.000000000000000e+00 0.000000000000000e+00
0.000000000000000e+00 0.000000000000000e+00 0.000000000000000e+00
0.000000000000000e+00 0.000000000000000e+00 0.000000000000000e+00
0.000000000000000e+00 0.000000000000000e+00 0.000000000000000e+00
0.000000000000000e+00 0.000000000000000e+00 0.000000000000000e+00
0.000000000000000e+00 0.000000000000000e+00 0.000000000000000e+00
0.000000000000000e+00 0.000000000000000e+00 0.000000000000000e+00
0.000000000000000e+00 0.000000000000000e+00 0.000000000000000e+00
0.000000000000000e+00 0.000000000000000e+00 0.000000000000000e+00
0.000000000000000e+00 0.000000000000000e+00 0.000000000000000e+00
0.000000000000000e+00 0.000000000000000e+00 0.000000000000000e+00
0.000000000000000e+00 0.000000000000000e+00 0.000000000000000e+00
0.000000000000000e+00 0.000000000000000e+00 0.000000000000000e+00
0.000000000000000e+00 0.000000000000000e+00 0.000000000000000e+00
0.000000000000000e+00 0.000000000000000e+00 0.000000000000000e+00
0.000000000000000e+00 0.000000000000000e+00 0.000000000000000e+00
0.000000000000000e+00 0.000000000000000e+00 0.000000000000000e+00
0.000000000000000e+00 0.000000000000000e+00 0.000000000000000e+00
0.000000000000000e+00 0.000000000000000e+00 0.000000000000000e+00
0.000000000000000e+00 0.000000000000000e+00 0.000000000000000e+00
0.000000000000000e+00 0.000000000000000e+00 0.000000000000000e+00
0.000000000000000e+00 0.000000000000000e+00 0.000000000000000e+00
0.000000000000000e+00 0.000000000000000e+00 0.000000000000000e+00
0.000000000000000e+00 0.000000000000000e+00 0.000000000000000e+00
0.000000000000000e+00 0.000000000000000e+00 0.000000000000000e+00
0.000000000000000e+00 0.000000000000000e+00 0.000000000000000e+00
0.000000000000000e+00 0.000000000000000e+00 0.000000000000000e+00
0.000000000000000e+00 0.000000000000000e+00 0.000000000000000e+00
0.000000000000000e+00 0.000000000000000e+00 0.000000000000000e+00
0.000000000000000e+00 0.000000000000000e+00 0.000000000000000e+00
0.000000000000000e+00 0.000000000000000e+00 0.000000000000000e+00
0.000000000000000e+00 0.000000000000000e+00 0.000000000000000e+00
0.000000000000000e+00 0.000000000000000e+00 0.000000000000000e+00
0.000000000000000e+00 0.000000000000000e+00 0.000000000000000e+00
0.000000000000000e+00 0.000000000000000e+00 0.000000000000000e+00
0.000000000000000e+00 0.000000000000000e+00 0.000000000000000e+00
0.000000000000000e+00 0.000000000000000e+00 0.000000000000000e+00
0.000000000000000e+00 0.000000000000000e+00 0.000000000000000e+00
0.000000000000000e+00 0.000000000000000e+00 0.000000000000000e+00
0.000000000000000e+00 0.000000000000000e+00 0.000000000000000e+00
0.000000000000000e+00 0.000000000000000e+00 0.000000000000000e+00
0.000000000000000e+00 0.000000000000000e+00 0.000000000000000e+00
0.000000000000000e+00 0.000000000000000e+00 0.000000000000000e+00
0.000000000000000e+00 0.000000000000000e+00 0.000000000000000e+00
0.000000000000000e+00 0.000000000000000e+00 0.000000000000000e+00
0.000000000000000e+00 0.000000000000000e+00 0.000000000000000e+00
0.000000000000000e+00 0.000000000000000e+00 0.000000000000000e+00
0.000000000000000e+00 0.000000000000000e+00 0.000000000000000e+00
0.000000000000000e+00 0.000000000000000e+00 0.000000000000000e+00
0.000000000000000e+00 0.000000000000000e+00 0.000000000000000e+00
0.000000000000000e+00 0.000000000000000e+00 0.000000000000000e+00
0.000000000000000e+00 0.000000000000000e+00 0.000000000000000e+00
0.000000000000000e+00 0.000000000000000e+00 0.000000000000000e+00
0.000000000000000e+00 0.000000000000000e+00 0.000000000000000e+00
0.000000000000000e+00 0.000000000000000e+00 0.000000000000000e+00
0.000000000000000e+00 0.000000000000000e+00 0.000000000000000e+00
0.000000000000000e+00 0.000000000000000e+00 0.000000000000000e+00
0.000000000000000e+00 0.000000000000000e+00 0.000000000000000e+00
0.000000000000000e+00 0.000000000000000e+00 0.000000000000000e+00
0.000000000000000e+00 0.000000000000000e+00 0.000000000000000e+00
0.000000000000000e+00 0.000000000000000e+00 0.000000000000000e+00
0.000000000000000e+00 0.000000000000000e+00 0.000000000000000e+00
0.000000000000000e+00 0.000000000000000e+00 0.000000000000000e+00
0.000000000000000e+00 0.000000000000000e+00 0.000000000000000e+00
0.000000000000000e+00 0.000000000000000e+00 0.000000000000000e+00
0.000000000000000e+00 0.000000000000000e+00 0.000000000000000e+00
0.000000000000000e+00 0.000000000000000e+00 0.000000000000000e+00