# vtk DataFile Version 3.0
# Dislocation lines converted from MoDELib file
ASCII
DATASET UNSTRUCTURED_GRID
POINTS 2901 double
-1.429999999999877e+00  3.863858941524650e+02 -2.918975276816622e+03
-1.429999999999897e+00 -3.863858941524674e+02 -2.918975276816622e+03
-1.429999999999897e+00  0.000000000000000e+00 -2.918975276816622e+03
-1.430000000000221e+00  0.000000000000000e+00  2.918975276816619e+03
-1.430000000000221e+00 -3.863858941524674e+02  2.918975276816619e+03
-1.430000000000201e+00  3.863858941524653e+02  2.918975276816619e+03
-1.148424410113327e+03  1.103108873747542e+00 -2.918975276816622e+03
-1.148398167967187e+03 -1.061820130451897e+00 -2.918975276816622e+03
-1.148511542489944e+03 -1.743841097611492e+00 -2.918975276816622e+03
-1.148588405645407e+03 -3.925756686061811e+00 -2.918975276816622e+03
-1.148438256917727e+03 -5.235328854311977e+00 -2.918975276816622e+03
-1.148350031439440e+03 -6.334002296175611e+00 -2.918975276816622e+03
-1.148386230886420e+03 -8.190879290525720e+00 -2.918975276816622e+03
-1.148432460728707e+03 -1.298348931529358e+01 -2.918975276816622e+03
-1.148354354855515e+03 -1.364782742198616e+01 -2.918975276816622e+03
-1.148226678936904e+03 -1.661318883365977e+01 -2.918975276816622e+03
-1.148298970765301e+03 -2.009760868429916e+01 -2.918975276816622e+03
-1.148309074962300e+03 -2.290317051131100e+01 -2.918975276816622e+03
-1.148306670912435e+03 -2.691488973904302e+01 -2.918975276816622e+03
-1.148188497543136e+03 -2.804171631440809e+01 -2.918975276816622e+03
-1.148111612953174e+03 -3.455739809513649e+01 -2.918975276816622e+03
-1.148181959732810e+03 -3.540894876938725e+01 -2.918975276816622e+03
-1.148154576493423e+03 -3.851551613973077e+01 -2.918975276816622e+03
-1.148091199542484e+03 -4.348307430835354e+01 -2.918975276816622e+03
-1.148226240559576e+03 -4.492818018709723e+01 -2.918975276816622e+03
-1.147764036091203e+03 -5.006640642033894e+01 -2.918975276816622e+03
-1.148052790815693e+03 -5.596841622377177e+01 -2.918975276816622e+03
-1.148065814241217e+03 -5.828190693440985e+01 -2.918975276816622e+03
-1.148404430516573e+03 -6.008820910816910e+01 -2.918975276816622e+03
-1.147933530230450e+03 -6.138194306594851e+01 -2.918975276816622e+03
-1.147629695482690e+03 -6.326589865655196e+01 -2.918975276816622e+03
-1.147995096404994e+03 -6.429195951134535e+01 -2.918975276816622e+03
-1.147901227765926e+03 -6.639440675918954e+01 -2.918975276816622e+03
-1.147862355137012e+03 -6.740578506369962e+01 -2.918975276816622e+03
-1.147802434598024e+03 -6.994104603882404e+01 -2.918975276816622e+03
-1.147952807718345e+03 -7.063424839102294e+01 -2.918975276816622e+03
-1.147769983358131e+03 -7.212876618823276e+01 -2.918975276816622e+03
-1.147884794001852e+03 -7.418540157949074e+01 -2.918975276816622e+03
-1.147725515134706e+03 -7.531403068618643e+01 -2.918975276816622e+03
-1.147846736194111e+03 -7.637480551573893e+01 -2.918975276816622e+03
-1.147689465811868e+03 -7.837092548749655e+01 -2.918975276816622e+03
-1.147829748144925e+03 -8.038225042749644e+01 -2.918975276816622e+03
-1.147686211074397e+03 -8.148381562820336e+01 -2.918975276816622e+03
-1.147835926373751e+03 -8.370605437831279e+01 -2.918975276816622e+03
-1.147659451220684e+03 -8.525311986256480e+01 -2.918975276816622e+03
-1.147785397779260e+03 -8.728597765802546e+01 -2.918975276816622e+03
-1.147629554596367e+03 -8.948563492605099e+01 -2.918975276816622e+03
-1.147750382572809e+03 -9.037291425598667e+01 -2.918975276816622e+03
-1.147610544651640e+03 -9.209699655446170e+01 -2.918975276816622e+03
-1.147716357482854e+03 -9.484750731791446e+01 -2.918975276816622e+03
-1.147626550987590e+03 -9.555065621613068e+01 -2.918975276816622e+03
-1.147720090067115e+03 -9.845176089288915e+01 -2.918975276816622e+03
-1.147628298117825e+03 -1.003537958163380e+02 -2.918975276816622e+03
-1.147689858695037e+03 -1.013920208236812e+02 -2.918975276816622e+03
-1.147582183896858e+03 -1.032471909593408e+02 -2.918975276816622e+03
-1.147672074304824e+03 -1.042512597688696e+02 -2.918975276816622e+03
-1.147605843681831e+03 -1.062266164124463e+02 -2.918975276816622e+03
-1.147634246112219e+03 -1.072781397719877e+02 -2.918975276816622e+03
-1.147466632334634e+03 -1.097048372936371e+02 -2.918975276816622e+03
-1.147629180021943e+03 -1.105592087047264e+02 -2.918975276816622e+03
-1.147769072735988e+03 -1.122527020421617e+02 -2.918975276816622e+03
-1.147625930265265e+03 -1.141069907593035e+02 -2.918975276816622e+03
-1.147529112649533e+03 -1.142014906473979e+02 -2.918975276816622e+03
-1.147587702502098e+03 -1.157429352801734e+02 -2.918975276816622e+03
-1.147604788398279e+03 -1.183239271657178e+02 -2.918975276816622e+03
-1.147614434623818e+03 -1.201165449587771e+02 -2.918975276816622e+03
-1.147567361048157e+03 -1.213428366603961e+02 -2.918975276816622e+03
-1.147586375003591e+03 -1.236078968818979e+02 -2.918975276816622e+03
-1.147590864910644e+03 -1.248559725473606e+02 -2.918975276816622e+03
-1.147597896329105e+03 -1.295015843782206e+02 -2.918975276816622e+03
-1.147593386553222e+03 -1.297637154612592e+02 -2.918975276816622e+03
-1.147633366242379e+03 -1.319568421378887e+02 -2.918975276816622e+03
-1.147618104329093e+03 -1.340783585419886e+02 -2.918975276816622e+03
-1.147614353480851e+03 -1.343768861861202e+02 -2.918975276816622e+03
-1.147618318217139e+03 -1.357584369987107e+02 -2.918975276816622e+03
-1.147653345681423e+03 -1.383906720448350e+02 -2.918975276816622e+03
-1.147657432013942e+03 -1.400694983928925e+02 -2.918975276816622e+03
-1.147669079097450e+03 -1.412835936649765e+02 -2.918975276816622e+03
-1.147685941042997e+03 -1.431670653273748e+02 -2.918975276816622e+03
-1.147689227817274e+03 -1.441692731556239e+02 -2.918975276816622e+03
-1.147711758582931e+03 -1.461338893727805e+02 -2.918975276816622e+03
-1.147711481284202e+03 -1.471528042857089e+02 -2.918975276816622e+03
-1.147746181395304e+03 -1.496673755353715e+02 -2.918975276816622e+03
-1.147737279897798e+03 -1.503678794255895e+02 -2.918975276816622e+03
-1.147760147515899e+03 -1.520369092144081e+02 -2.918975276816622e+03
-1.147760686077042e+03 -1.540266471839059e+02 -2.918975276816622e+03
-1.147765157756260e+03 -1.540594730250507e+02 -2.918975276816622e+03
-1.147773986656411e+03 -1.559567524190867e+02 -2.918975276816622e+03
-1.147868580501618e+03 -1.601690092856049e+02 -2.918975276816622e+03
-1.147821451016915e+03 -1.612247636460774e+02 -2.918975276816622e+03
-1.147788737520569e+03 -1.631885018120418e+02 -2.918975276816622e+03
-1.147853433679152e+03 -1.647261360824374e+02 -2.918975276816622e+03
-1.147911969813110e+03 -1.723223560635258e+02 -2.918975276816622e+03
-1.147920456125444e+03 -1.756643731215390e+02 -2.918975276816622e+03
-1.147928651881383e+03 -1.783163680283093e+02 -2.918975276816622e+03
-1.147940685885929e+03 -1.802167481110032e+02 -2.918975276816622e+03
-1.147954316300252e+03 -1.812744554316045e+02 -2.918975276816622e+03
-1.147957000663095e+03 -1.831434501208780e+02 -2.918975276816622e+03
-1.147958495773181e+03 -1.847069334574408e+02 -2.918975276816622e+03
-1.147976737149689e+03 -1.894826317468953e+02 -2.918975276816622e+03
-1.147964520978624e+03 -1.900481597443840e+02 -2.918975276816622e+03
-1.147989600627978e+03 -1.919414137636427e+02 -2.918975276816622e+03
-1.147978618280791e+03 -1.938932197338108e+02 -2.918975276816622e+03
-1.147980380041856e+03 -1.942854162555694e+02 -2.918975276816622e+03
-1.147926226171209e+03 -1.960461904740539e+02 -2.918975276816622e+03
-1.147966317724590e+03 -2.000697047762814e+02 -2.918975276816622e+03
-1.147933995160073e+03 -2.010927431662264e+02 -2.918975276816622e+03
-1.147943639746258e+03 -2.030836500940141e+02 -2.918975276816622e+03
-1.147969663850604e+03 -2.040486307702952e+02 -2.918975276816622e+03
-1.147963049025753e+03 -2.060359432562116e+02 -2.918975276816622e+03
-1.147766618792547e+03 -2.070798980719923e+02 -2.918975276816622e+03
-1.147891359221277e+03 -2.096391135145562e+02 -2.918975276816622e+03
-1.147982514066532e+03 -2.104263075669539e+02 -2.918975276816622e+03
-1.147888447989815e+03 -2.123927532811894e+02 -2.918975276816622e+03
-1.147682482227966e+03 -2.155941117093305e+02 -2.918975276816622e+03
-1.147773773483431e+03 -2.182391950614729e+02 -2.918975276816622e+03
-1.147748085099809e+03 -2.200738602936186e+02 -2.918975276816622e+03
-1.147639258144832e+03 -2.212030606323794e+02 -2.918975276816622e+03
-1.147485601341873e+03 -2.231498760679321e+02 -2.918975276816622e+03
-1.147653003803228e+03 -2.246367130593597e+02 -2.918975276816622e+03
-1.147476830323549e+03 -2.294517172426955e+02 -2.918975276816622e+03
-1.147437804180972e+03 -2.301830714435431e+02 -2.918975276816622e+03
-1.147350630446801e+03 -2.319927361453510e+02 -2.918975276816622e+03
-1.147236218940732e+03 -2.338012284543255e+02 -2.918975276816622e+03
-1.147278292308694e+03 -2.339024565524000e+02 -2.918975276816622e+03
-1.147464675524273e+03 -2.355453996112292e+02 -2.918975276816622e+03
-1.147450568706646e+03 -2.381336261949878e+02 -2.918975276816622e+03
-1.147409265110206e+03 -2.400803849582392e+02 -2.918975276816622e+03
-1.147556006645607e+03 -2.411811975302631e+02 -2.918975276816622e+03
-1.147864453982781e+03 -2.431589941365637e+02 -2.918975276816622e+03
-1.147658684804323e+03 -2.444789682505795e+02 -2.918975276816622e+03
-1.147827694232194e+03 -2.470199117765513e+02 -2.918975276816622e+03
-1.147839835629439e+03 -2.470577220506538e+02 -2.918975276816622e+03
-1.147802868341170e+03 -2.497773944751155e+02 -2.918975276816622e+03
-1.147784597208644e+03 -2.508559400620395e+02 -2.918975276816622e+03
-1.147767812130896e+03 -2.516887593228401e+02 -2.918975276816622e+03
-1.147766013115755e+03 -2.538528571538737e+02 -2.918975276816622e+03
-1.147782795074935e+03 -2.552309156682661e+02 -2.918975276816622e+03
-1.147764595381939e+03 -2.574745873360186e+02 -2.918975276816622e+03
-1.147761425046422e+03 -2.577203041790709e+02 -2.918975276816622e+03
-1.147760889576313e+03 -2.601534619013181e+02 -2.918975276816622e+03
-1.147768625461335e+03 -2.609426958186488e+02 -2.918975276816622e+03
-1.147776826938550e+03 -2.634033496377418e+02 -2.918975276816622e+03
[...]
POINT_DATA 2901
VECTORS PK_force double
0.000000000000000e+00 0.000000000000000e+00 0.000000000000000e+00
0.000000000000000e+00 0.000000000000000e+00 0.000000000000000e+00
0.000000000000000e+00 0.000000000000000e+00 0.000000000000000e+00
0.000000000000000e+00 0.000000000000000e+00 0.000000000000000e+00
0.000000000000000e+00 0.000000000000000e+00 0.000000000000000e+00
0.000000000000000e+00 0.000000000000000e+00 0.000000000000000e+00
0.000000000000000e+00 0.000000000000000e+00 0.000000000000000e+00
0.000000000000000e+00 0.000000000000000e+00 0.000000000000000e+00
0.000000000000000e+00 0.000000000000000e+00 0.000000000000000e+00
0.000000000000000e+00 0.000000000000000e+00 0.000000000000000e+00
0.000000000000000e+00 0.000000000000000e+00 0.000000000000000e+00
0.000000000000000e+00 0.000000000000000e+00 0.000000000000000e+00
0.000000000000000e+00 0.000000000000000e+00 0.000000000000000e+00
0.000000000000000e+00 0.000000000000000e+00 0.000000000000000e+00
0.000000000000000e+00 0.000000000000000e+00 0.000000000000000e+00
0.000000000000000e+00 0.000000000000000e+00 0.000000000000000e+00
0.000000000000000e+00 0.000000000000000e+00 0.000000000000000e+00
0.000000000000000e+00 0.000000000000000e+00 0.000000000000000e+00
0.000000000000000e+00 0.000000000000000e+00 0.000000000000000e+00
0.000000000000000e+00 0.000000000000000e+00 0.000000000000000e+00
0.000000000000000e+00 0.000000000000000e+00 0.000000000000000e+00
0.000000000000000e+00 0.000000000000000e+00 0.000000000000000e+00
0.000000000000000e+00 0.000000000000000e+00 0.000000000000000e+00
0.000000000000000e+00 0.000000000000000e+00 0.000000000000000e+00
0.000000000000000e+00 0.000000000000000e+00 0.000000000000000e+00
0.000000000000000e+00 0.000000000000000e+00 0.000000000000000e+00
0.000000000000000e+00 0.000000000000000e+00 0.000000000000000e+00
0.000000000000000e+00 0.000000000000000e+00 0.000000000000000e+00
0.000000000000000e+00 0.000000000000000e+00 0.000000000000000e+00
0.000000000000000e+00 0.000000000000000e+00 0.000000000000000e+00
0.000000000000000e+00 0.000000000000000e+00 0.000000000000000e+00
0.000000000000000e+00 0.000000000000000e+00 0.000000000000000e+00
0.000000000000000e+00 0.000000000000000e+00 0.000000000000000e+00
0.000000000000000e+00 0.000000000000000e+00 0.000000000000000e+00
0.000000000000000e+00 0.000000000000000e+00 0.000000000000000e+00
0.000000000000000e+00 0.000000000000000e+00 0.000000000000000e+00
0.000000000000000e+00 0.000000000000000e+00 0.000000000000000e+00
0.000000000000000e+00 0.000000000000000e+00 0.000000000000000e+00
0.000000000000000e+00 0.000000000000000e+00 0.000000000000000e+00
0.000000000000000e+00 0.000000000000000e+00 0.000000000000000e+00
0.000000000000000e+00 0.000000000000000e+00 0.000000000000000e+00
0.000000000000000e+00 0.000000000000000e+00 0.000000000000000e+00
0.000000000000000e+00 0.000000000000000e+00 0.000000000000000e+00
0.000000000000000e+00 0.000000000000000e+00 0.000000000000000e+00
0.000000000000000e+00 0.000000000000000e+00 0.000000000000000e+00
0.000000000000000e+00 0.000000000000000e+00 0.000000000000000e+00
0.000000000000000e+00 0.000000000000000e+00 0.000000000000000e+00
0.000000000000000e+00 0.000000000000000e+00 0.000000000000000e+00
0.000000000000000e+00 0.000000000000000e+00 0.000000000000000e+00
0.000000000000000e+00 0.000000000000000e+00 0.000000000000000e+00
0.000000000000000e+00 0.000000000000000e+00 0.000000000000000e+00
0.000000000000000e+00 0.000000000000000e+00 0.000000000000000e+00
0.000000000000000e+00 0.000000000000000e+00 0.000000000000000e+00
0.000000000000000e+00 0.000000000000000e+00 0.000000000000000e+00
0.000000000000000e+00 0.000000000000000e+00 0.000000000000000e+00
0.000000000000000e+00 0.000000000000000e+00 0.000000000000000e+00
0.000000000000000e+00 0.000000000000000e+00 0.000000000000000e+00
0.000000000000000e+00 0.000000000000000e+00 0.000000000000000e+00
0.000000000000000e+00 0.000000000000000e+00 0.000000000000000e+00
0.000000000000000e+00 0.000000000000000e+00 0.000000000000000e+00
0.000000000000000e+00 0.000000000000000e+00 0.000000000000000e+00
0.000000000000000e+00 0.000000000000000e+00 0.000000000000000e+00
0.000000000000000e+00 0.000000000000000e+00 0.000000000000000e+00
0.000000000000000e+00 0.000000000000000e+00 0.000000000000000e+00
0.000000000000000e+00 0.000000000000000e+00 0.000000000000000e+00
0.000000000000000e+00 0.000000000000000e+00 0.000000000000000e+00
0.000000000000000e+00 0.000000000000000e+00 0.000000000000000e+00
0.000000000000000e+00 0.000000000000000e+00 0.000000000000000e+00
0.000000000000000e+00 0.000000000000000e+00 0.000000000000000e+00
0.000000000000000e+00 0.000000000000000e+00 0.000000000000000e+00
0.000000000000000e+00 0.000000000000000e+00 0.000000000000000e+00
0.000000000000000e+00 0.000000000000000e+00 0.000000000000000e+00
0.000000000000000e+00 0.000000000000000e+00 0.000000000000000e+00
0.000000000000000e+00 0.000000000000000e+00 0.000000000000000e+00
0.000000000000000e+00 0.000000000000000e+00 0.000000000000000e+00
0.000000000000000e+00 0.000000000000000e+00 0.000000000000000e+00
0.000000000000000e+00 0.000000000000000e+00 0.000000000000000e+00
0.000000000000000e+00 0.000000000000000e+00 0.000000000000000e+00
0.000000000000000e+00 0.000000000000000e+00 0.000000000000000e+00
0.000000000000000e+00 0.000000000000000e+00 0.000000000000000e+00
0.000000000000000e+00 0.000000000000000e+00 0.000000000000000e+00
0.000000000000000e+00 0.000000000000000e+00 0.000000000000000e+00
0.000000000000000e+00 0.000000000000000e+00 0.000000000000000e+00
0.000000000000000e+00 0.000000000000000e+00 0.000000000000000e+00
0.000000000000000e+00 0.000000000000000e+00 0.000000000000000e+00
0.000000000000000e+00 0.000000000000000e+00 0.000000000000000e+00
0.000000000000000e+00 0.000000000000000e+00 0.000000000000000e+00
0.000000000000000e+00 0.000000000000000e+00 0.000000000000000e+00
0.000000000000000e+00 0.000000000000000e+00 0.000000000000000e+00
0.000000000000000e+00 0.000000000000000e+00 0.000000000000000e+00
0.000000000000000e+00 0.000000000000000e+00 0.000000000000000e+00
0.000000000000000e+00 0.000000000000000e+00 0.000000000000000e+00
0.000000000000000e+00 0.000000000000000e+00 0.000000000000000e+00
0.000000000000000e+00 0.000000000000000e+00 0.000000000000000e+00
0.000000000000000e+00 0.000000000000000e+00 0.000000000000000e+00
0.000000000000000e+00 0.000000000000000e+00 0.000000000000000e+00
0.000000000000000e+00 0.000000000000000e+00 0.000000000000000e+00
0.000000000000000e+00 0.000000000000000e+00 0.000000000000000e+00
0.000000000000000e+00 0.000000000000000e+00 0.000000000000000e+00
0.000000000000000e+00 0.000000000000000e+00 0.000000000000000e+00
0.000000000000000e+00 0.000000000000000e+00 0.000000000000000e+00
0.000000000000000e+00 0.000000000000000e+00 0.000000000000000e+00
0.000000000000000e+00 0.000000000000000e+00 0.000000000000000e+00
0.000000000000000e+00 0.000000000000000e+00 0.000000000000000e+00
0.000000000000000e+00 0.000000000000000e+00 0.000000000000000e+00
0.000000000000000e+00 0.000000000000000e+00 0.000000000000000e+00
0.000000000000000e+00 0.000000000000000e+00 0.000000000000000e+00
0.000000000000000e+00 0.000000000000000e+00 0.000000000000000e+00
0.000000000000000e+00 0.000000000000000e+00 0.000000000000000e+00
0.000000000000000e+00 0.000000000000000e+00 0.000000000000000e+00
0.000000000000000e+00 0.000000000000000e+00 0.000000000000000e+00
0.000000000000000e+00 0.000000000000000e+00 0.000000000000000e+00
0.000000000000000e+00 0.000000000000000e+00 0.000000000000000e+00
0.000000000000000e+00 0.000000000000000e+00 0.000000000000000e+00
0.000000000000000e+00 0.000000000000000e+00 0.000000000000000e+00
0.000000000000000e+00 0.000000000000000e+00 0.000000000000000e+00
0.000000000000000e+00 0.000000000000000e+00 0.000000000000000e+00
0.000000000000000e+00 0.000000000000000e+00 0.000000000000000e+00
0.000000000000000e+00 0.000000000000000e+00 0.000000000000000e+00
0.000000000000000e+00 0.000000000000000e+00 0.000000000000000e+00
0.000000000000000e+00 0.000000000000000e+00 0.000000000000000e+00
0.000000000000000e+00 0.000000000000000e+00 0.000000000000000e+00
0.000000000000000e+00 0.000000000000000e+00 0.000000000000000e+00
0.000000000000000e+00 0.000000000000000e+00 0.000000000000000e+00
0.000000000000000e+00 0.000000000000000e+00 0.000000000000000e+00
0.000000000000000e+00 0.000000000000000e+00 0.000000000000000e+00
0.000000000000000e+00 0.000000000000000e+00 0.000000000000000e+00
0.000000000000000e+00 0.000000000000000e+00 0.000000000000000e+00
0.000000000000000e+00 0.000000000000000e+00 0.000000000000000e+00
0.000000000000000e+00 0.000000000000000e+00 0.000000000000000e+00
0.000000000000000e+00 0.000000000000000e+00 0.000000000000000e+00
0.000000000000000e+00 0.000000000000000e+00 0.000000000000000e+00
0.000000000000000e+00 0.000000000000000e+00 0.000000000000000e+00
0.000000000000000e+00 0.000000000000000e+00 0.000000000000000e+00
0.000000000000000e+00 0.000000000000000e+00 0.000000000000000e+00
0.000000000000000e+00 0.000000000000000e+00 0.000000000000000e+00
0.000000000000000e+00 0.000000000000000e+00 0.000000000000000e+00
0.000000000000000e+00 0.000000000000000e+00 0.000000000000000e+00
0.000000000000000e+00 0.000000000000000e+00 0.000000000000000e+00
0.000000000000000e+00 0.000000000000000e+00 0.000000000000000e+00
0.000000000000000e+00 0.000000000000000e+00 0.000000000000000e+00
0.000000000000000e+00 0.000000000000000e+00 0.000000000000000e+00
0.000000000000000e+00 0.000000000000000e+00 0.000000000000000e+00
0.000000000000000e+00 0.000000000000000e+00 0.000000000000000e+00
0.000000000000000e+00 0.000000000000000e+00 0.000000000000000e+00
0.000000000000000e+00 0.000000000000000e+00 0.000000000000000e+00
0.000000000000000e+00 0.000000000000000e+00 0.000000000000000e+00
0.000000000000000e+00 0.000000000000000e+00 0.000000000000000e+00
0.000000000000000e+00 0.000000000000000e+00 0.000000000000000e+00
0.000000000000000e+00 0.000000000000000e+00 0.000000000000000e+00
0.000000000000000e+00 0.000000000000000e+00 0.000000000000000e+00
0.000000000000000e+00 0.000000000000000e+00 0.000000000000000e+00
0.000000000000000e+00 0.000000000000000e+00 0.000000000000000e+00
0.000000000000000e+00 0.000000000000000e+00 0.000000000000000e+00
0.000000000000000e+00 0.000000000000000e+00 0.000000000000000e+00
0.000000000000000e+00 0.000000000000000e+00 0.000000000000000e+00
0.000000000000000e+00 0.000000000000000e+00 0.000000000000000e+00
0.000000000000000e+00 0.000000000000000e+00 0.000000000000000e+00
0.000000000000000e+00 0.000000000000000e+00 0.000000000000000e+00
0.000000000000000e+00 0.000000000000000e+00 0.000000000000000e+00
0.000000000000000e+00 0.000000000000000e+00 0.000000000000000e+00
0.000000000000000e+00 0.000000000000000e+00 0.000000000000000e+00
0.000000000000000e+00 0.000000000000000e+00 0.000000000000000e+00
0.000000000000000e+00 0.000000000000000e+00 0.000000000000000e+00
0.000000000000000e+00 0.000000000000000e+00 0.000000000000000e+00
0.000000000000000e+00 0.000000000000000e+00 0.000000000000000e+00
0.000000000000000e+00 0.000000000000000e+00 0.000000000000000e+00
0.000000000000000e+00 0.000000000000000e+00 0.000000000000000e+00
0.000000000000000e+00 0.000000000000000e+00 0.000000000000000e+00
0.000000000000000e+00 0.000000000000000e+00 0.000000000000000e+00
0.000000000000000e+00 0.000000000000000e+00 0.000000000000000e+00
0.000000000000000e+00 0.000000000000000e+00 0.000000000000000e+00
0.000000000000000e+00 0.000000000000000e+00 0.000000000000000e+00
0.000000000000000e+00 0.000000000000000e+00 0.000000000000000e+00
0.000000000000000e+00 0.000000000000000e+00 0.000000000000000e+00
0.000000000000000e+00 0.000000000000000e+00 0.000000000000000e+00
0.000000000000000e+00 0.000000000000000e+00 0.000000000000000e+00
0.000000000000000e+00 0.000000000000000e+00 0.000000000000000e+00
0.000000000000000e+00 0.000000000000000e+00 0.000000000000000e+00
0.000000000000000e+00 0.000000000000000e+00 0.000000000000000e+00
0.000000000000000e+00 0.000000000000000e+00 0.000000000000000e+00
0.000000000000000e+00 0.000000000000000e+00 0.000000000000000e+00
0.000000000000000e+00 0.000000000000000e+00 0.000000000000000e+00
0.000000000000000e+00 0.000000000000000e+00 0.000000000000000e+00
0.000000000000000e+00 0.000000000000000e+00 0.000000000000000e+00
0.000000000000000e+00 0.000000000000000e+00 0.000000000000000e+00
0.000000000000000e+00 0.000000000000000e+00 0.000000000000000e+00
0.000000000000000e+00 0.000000000000000e+00 0.000000000000000e+00
0.000000000000000e+00 0.000000000000000e+00 0.000000000000000e+00
0.000000000000000e+00 0.000000000000000e+00 0.000000000000000e+00
0.000000000000000e+00 0.000000000000000e+00 0.000000000000000e+00
0.000000000000000e+00 0.000000000000000e+00 0.000000000000000e+00
0.000000000000000e+00 0.000000000000000e+00 0.000000000000000e+00
0.000000000000000e+00 0.000000000000000e+00 0.000000000000000e+00
0.000000000000000e+00 0.000000000000000e+00 0.000000000000000e+00
0.000000000000000e+00 0.000000000000000e+00 0.000000000000000e+00
0.000000000000000e+00 0.000000000000000e+00 0.000000000000000e+00
0.000000000000000e+00 0.000000000000000e+00 0.000000000000000e+00
0.000000000000000e+00 0.000000000000000e+00 0.000000000000000e+00
0.000000000000000e+00 0.000000000000000e+00 0.000000000000000e+00
0.000000000000000e+00 0.000000000000000e+00 0.000000000000000e+00
0.000000000000000e+00 0.000000000000000e+00 0.000000000000000e+00
0.000000000000000e+00 0.000000000000000e+00 0.000000000000000e+00
0.000000000000000e+00 0.000000000000000e+00 0.000000000000000e+00
0.000000000000000e+00 0.000000000000000e+00 0.000000000000000e+00
0.000000000000000e+00 0.000000000000000e+00 0.000000000000000e+00
0.000000000000000e+00 0.000000000000000e+00 0.000000000000000e+00
0.000000000000000e+00 0.000000000000000e+00 0.000000000000000e+00
0.000000000000000e+00 0.000000000000000e+00 0.000000000000000e+00
0.000000000000000e+00 0.000000000000000e+00 0.000000000000000e+00
0.000000000000000e+00 0.000000000000000e+00 0.000000000000000e+00
0.000000000000000e+00 0.000000000000000e+00 0.000000000000000e+00
0.000000000000000e+00 0.000000000000000e+00 0.000000000000000e+00
0.000000000000000e+00 0.000000000000000e+00 0.000000000000000e+00
0.000000000000000e+00 0.000000000000000e+00 0.000000000000000e+00
0.000000000000000e+00 0.000000000000000e+00 0.000000000000000e+00
0.000000000000000e+00 0.000000000000000e+00 0.000000000000000e+00
0.000000000000000e+00 0.000000000000000e+00 0.000000000000000e+00
0.000000000000000e+00 0.000000000000000e+00 0.000000000000000e+00
0.000000000000000e+00 0.000000000000000e+00 0.000000000000000e+00
0.000000000000000e+00 0.000000000000000e+00 0.000000000000000e+00
0.000000000000000e+00 0.000000000000000e+00 0.000000000000000e+00
0.000000000000000e+00 0.000000000000000e+00 0.000000000000000e+00
0.000000000000000e+00 0.000000000000000e+00 0.000000000000000e+00
0.000000000000000e+00 0.000000000000000e+00 0.000000000000000e+00
0.000000000000000e+00 0.000000000000000e+00 0.000000000000000e+00
0.000000000000000e+00 0.000000000000000e+00 0.000000000000000e+00
0.000000000000000e+00 0.000000000000000e+00 0.000000000000000e+00
0.000000000000000e+00 0.000000000000000e+00 0.000000000000000e+00
0.000000000000000e+00 0.000000000000000e+00 0.000000000000000e+00
0.000000000000000e+00 0.000000000000000e+00 0.000000000000000e+00
0.000000000000000e+00 0.000000000000000e+00 0.000000000000000e+00
0.000000000000000e+00 0.000000000000000e+00 0.000000000000000e+00
0.000000000000000e+00 0.000000000000000e+00 0.000000000000000e+00
0.000000000000000e+00 0.000000000000000e+00 0.000000000000000e+00
0.000000000000000e+00 0.000000000000000e+00 0.000000000000000e+00
0.000000000000000e+00 0.000000000000000e+00 0.000000000000000e+00
0.000000000000000e+00 0.000000000000000e+00 0.000000000000000e+00
0.000000000000000e+00 0.000000000000000e+00 0.000000000000000e+00
0.000000000000000e+00 0.000000000000000e+00 0.000000000000000e+00
0.000000000000000e+00 0.000000000000000e+00 0.000000000000000e+00
0.000000000000000e+00 0.000000000000000e+00 0.000000000000000e+00
0.000000000000000e+00 0.000000000000000e+00 0.000000000000000e+00
0.000000000000000e+00 0.000000000000000e+00 0.000000000000000e+00
0.000000000000000e+00 0.000000000000000e+00 0.000000000000000e+00
0.000000000000000e+00 0.000000000000000e+00 0.000000000000000e+00
0.000000000000000e+00 0.000000000000000e+00 0.000000000000000e+00
0.000000000000000e+00 0.000000000000000e+00 0.000000000000000e+00
0.000000000000000e+00 0.000000000000000e+00 0.000000000000000e+00
0.000000000000000e+00 0.000000000000000e+00 0.000000000000000e+00
0.000000000000000e+00 0.000000000000000e+00 0.000000000000000e+00
0.000000000000000e+00 0.000000000000000e+00 0.000000000000000e+00
0.000000000000000e+00 0.000000000000000e+00 0.000000000000000e+00
0.000000000000000e+00 0.000000000000000e+00 0.000000000000000e+00
0.000000000000000e+00 0.000000000000000e+00 0.000000000000000e+00
0.000000000000000e+00 0.000000000000000e+00 0.000000000000000e+00
0.000000000000000e+00 0.000000000000000e+00 0.000000000000000e+00
0.000000000000000e+00 0.000000000000000e+00 0.000000000000000e+00
0.000000000000000e+00 0.000000000000000e+00 0.000000000000000e+00
0.000000000000000e+00 0.000000000000000e+00 0.000000000000000e+00
0.000000000000000e+00 0.000000000000000e+00 0.000000000000000e+00
0.000000000000000e+00 0.000000000000000e+00 0.000000000000000e+00
0.000000000000000e+00 0.000000000000000e+00 0.000000000000000e+00
0.000000000000000e+00 0.000000000000000e+00 0.000000000000000e+00
0.000000000000000e+00 0.000000000000000e+00 0.000000000000000e+00
0.000000000000000e+00 0.000000000000000e+00 0.000000000000000e+00
0.000000000000000e+00 0.000000000000000e+00 0.000000000000000e+00
0.000000000000000e+00 0.000000000000000e+00 0.000000000000000e+00
0.000000000000000e+00 0.000000000000000e+00 0.000000000000000e+00
0.000000000000000e+00 0.000000000000000e+00 0.000000000000000e+00
0.000000000000000e+00 0.000000000000000e+00 0.000000000000000e+00
0.000000000000000e+00 0.000000000000000e+00 0.000000000000000e+00
0.000000000000000e+00 0.000000000000000e+00 0.000000000000000e+00
0.000000000000000e+00 0.000000000000000e+00 0.000000000000000e+00
0.000000000000000e+00 0.000000000000000e+00 0.000000000000000e+00
0.000000000000000e+00 0.000000000000000e+00 0.000000000000000e+00
0.000000000000000e+00 0.000000000000000e+00 0.000000000000000e+00
0.000000000000000e+00 0.000000000000000e+00 0.000000000000000e+00
0.000000000000000e+00 0.000000000000000e+00 0.000000000000000e+00
0.000000000000000e+00 0.000000000000000e+00 0.000000000000000e+00
0.000000000000000e+00 0.000000000000000e+00 0.000000000000000e+00
0.000000000000000e+00 0.000000000000000e+00 0.000000000000000e+00
0.000000000000000e+00 0.000000000000000e+00 0.000000000000000e+00
0.000000000000000e+00 0.000000000000000e+00 0.000000000000000e+00
0.000000000000000e+00 0.000000000000000e+00 0.000000000000000e+00
0.000000000000000e+00 0.000000000000000e+00 0.000000000000000e+00
0.000000000000000e+00 0.000000000000000e+00 0.000000000000000e+00
0.000000000000000e+00 0.000000000000000e+00 0.000000000000000e+00
0.000000000000000e+00 0.000000000000000e+00 0.000000000000000e+00
0.000000000000000e+00 0.000000000000000e+00 0.000000000000000e+00
0.000000000000000e+00 0.000000000000000e+00 0.000000000000000e+00
0.000000000000000e+00 0.000000000000000e+00 0.000000000000000e+00
0.000000000000000e+00 0.000000000000000e+00 0.000000000000000e+00
0.000000000000000e+00 0.000000000000000e+00 0.000000000000000e+00
0.000000000000000e+00 0.000000000000000e+00 0.000000000000000e+00
0.000000000000000e+00 0.000000000000000e+00 0.000000000000000e+00
0.000000000000000e+00 0.000000000000000e+00 0.000000000000000e+00
0.000000000000000e+00 0.000000000000000e+00 0.000000000000000e+00
0.000000000000000e+00 0.000000000000000e+00 0.000000000000000e+00
0.000000000000000e+00 0.000000000000000e+00 0.000000000000000e+00
0.000000000000000e+00 0.000000000000000e+00 0.000000000000000e+00
0.000000000000000e+00 0.000000000000000e+00 0.000000000000000e+00