# vtk DataFile Version 3.0
# Dislocation lines converted from MoDELib file
ASCII
DATASET UNSTRUCTURED_GRID
POINTS 4108 double
-1.429999999999877e+00  3.863858941524650e+02 -2.918975276816622e+03
-1.429999999999897e+00 -3.863858941524674e+02 -2.918975276816622e+03
-1.429999999999897e+00  0.000000000000000e+00 -2.918975276816622e+03
-1.430000000000221e+00  0.000000000000000e+00  2.918975276816619e+03
-1.430000000000221e+00 -3.863858941524674e+02  2.918975276816619e+03
-1.430000000000201e+00  3.863858941524653e+02  2.918975276816619e+03
-1.148195710335089e+03  1.176984447373056e+00 -2.918975276816622e+03
-1.148194195852652e+03 -9.080568351394415e-01 -2.918975276816622e+03
-1.148543806110805e+03 -1.706825558865689e+00 -2.918975276816622e+03
-1.148567896152370e+03 -3.888772598026879e+00 -2.918975276816622e+03
-1.148515890342535e+03 -4.739550081325085e+00 -2.918975276816622e+03
-1.148014946488741e+03 -6.685078779097879e+00 -2.918975276816622e+03
-1.148357911308517e+03 -8.246181511711770e+00 -2.918975276816622e+03
-1.147460753138911e+03 -1.100574982329908e+01 -2.918975276816622e+03
-1.148238491651185e+03 -1.083408485563583e+01 -2.918975276816622e+03
-1.147928536804921e+03 -1.334325335051915e+01 -2.918975276816622e+03
-1.149096629094537e+03 -1.455005298340917e+01 -2.918975276816622e+03
-1.148278769384704e+03 -1.690322633316216e+01 -2.918975276816622e+03
-1.148531843346068e+03 -2.021641143472885e+01 -2.918975276816622e+03
-1.148445884071987e+03 -2.301107205851942e+01 -2.918975276816622e+03
-1.148785217852703e+03 -2.679779159110573e+01 -2.918975276816622e+03
-1.148982123946124e+03 -2.743673865955112e+01 -2.918975276816622e+03
-1.148158159659524e+03 -3.033488878503815e+01 -2.918975276816622e+03
-1.149287964809231e+03 -3.122874151432718e+01 -2.918975276816622e+03
-1.148481858224156e+03 -3.304716303692978e+01 -2.918975276816622e+03
-1.148715137481338e+03 -3.405341338597326e+01 -2.918975276816622e+03
-1.148371961214224e+03 -3.515162335429645e+01 -2.918975276816622e+03
-1.148682421791818e+03 -3.599884170627593e+01 -2.918975276816622e+03
-1.148265466697376e+03 -3.860203151622979e+01 -2.918975276816622e+03
-1.148381678034402e+03 -4.031990435202727e+01 -2.918975276816622e+03
-1.148025319826317e+03 -4.140372167957226e+01 -2.918975276816622e+03
-1.148124316895055e+03 -4.338596947459754e+01 -2.918975276816622e+03
-1.147723378571149e+03 -4.491988784177617e+01 -2.918975276816622e+03
-1.147355637457106e+03 -4.729327207785884e+01 -2.918975276816622e+03
-1.147947331195734e+03 -4.731882167000531e+01 -2.918975276816622e+03
-1.148020608389611e+03 -4.984126156992119e+01 -2.918975276816622e+03
-1.147462802652217e+03 -5.050029763458694e+01 -2.918975276816622e+03
-1.147617051550031e+03 -5.213366701237349e+01 -2.918975276816622e+03
-1.147741686638203e+03 -5.395496196643284e+01 -2.918975276816622e+03
-1.147276353032225e+03 -5.437496114816732e+01 -2.918975276816622e+03
-1.147683539454535e+03 -5.593229698273930e+01 -2.918975276816622e+03
-1.147375225846059e+03 -5.861826135369106e+01 -2.918975276816622e+03
-1.147888916405764e+03 -6.038553833079331e+01 -2.918975276816622e+03
-1.147943441580842e+03 -6.143692051473830e+01 -2.918975276816622e+03
-1.148024001217733e+03 -6.336292771800231e+01 -2.918975276816622e+03
-1.147678788285252e+03 -6.431629241135769e+01 -2.918975276816622e+03
-1.147337499803783e+03 -6.614830002707400e+01 -2.918975276816622e+03
-1.147936849865511e+03 -6.728778815701057e+01 -2.918975276816622e+03
-1.147815891535509e+03 -6.985942566508913e+01 -2.918975276816622e+03
-1.147642597695037e+03 -7.051128220040802e+01 -2.918975276816622e+03
-1.147593904301132e+03 -7.197384557374946e+01 -2.918975276816622e+03
-1.148153780278574e+03 -7.425518818565416e+01 -2.918975276816622e+03
-1.147277171838108e+03 -7.558913762767462e+01 -2.918975276816622e+03
-1.147008369889019e+03 -7.601448907758127e+01 -2.918975276816622e+03
-1.146289351041403e+03 -7.773388299663127e+01 -2.918975276816622e+03
-1.147483427659426e+03 -7.741133622966092e+01 -2.918975276816622e+03
-1.147441405366018e+03 -7.842462813432559e+01 -2.918975276816622e+03
-1.147675188954929e+03 -8.038403315671511e+01 -2.918975276816622e+03
-1.147895161994865e+03 -8.143415055829742e+01 -2.918975276816622e+03
-1.147958747408492e+03 -8.334506951627634e+01 -2.918975276816622e+03
-1.148507163427114e+03 -8.487509337969222e+01 -2.918975276816622e+03
-1.149021794461848e+03 -8.714604247100274e+01 -2.918975276816622e+03
-1.148098896098321e+03 -8.722274943932453e+01 -2.918975276816622e+03
-1.147865567555129e+03 -8.956849946077104e+01 -2.918975276816622e+03
-1.148156696367233e+03 -9.066015686534108e+01 -2.918975276816622e+03
-1.147993592976104e+03 -9.207005991030969e+01 -2.918975276816622e+03
-1.148196466949006e+03 -9.489451968050561e+01 -2.918975276816622e+03
-1.148179332143973e+03 -9.580190584443608e+01 -2.918975276816622e+03
-1.148690711160901e+03 -9.746004454390510e+01 -2.918975276816622e+03
-1.148017953039964e+03 -9.722262566127158e+01 -2.918975276816622e+03
-1.147911623992687e+03 -9.850123244846749e+01 -2.918975276816622e+03
-1.147854398392809e+03 -1.003310163966442e+02 -2.918975276816622e+03
-1.147944873243703e+03 -1.013790422629799e+02 -2.918975276816622e+03
-1.148044027265538e+03 -1.032940011847246e+02 -2.918975276816622e+03
-1.147698425153161e+03 -1.042822616056536e+02 -2.918975276816622e+03
-1.147548055738611e+03 -1.061513822494810e+02 -2.918975276816622e+03
-1.147999544505426e+03 -1.072127063587840e+02 -2.918975276816622e+03
-1.147969800948954e+03 -1.097324192485164e+02 -2.918975276816622e+03
-1.147648653438881e+03 -1.104448440109357e+02 -2.918975276816622e+03
-1.147585080421750e+03 -1.120527353077797e+02 -2.918975276816622e+03
-1.147818825656372e+03 -1.139167058860935e+02 -2.918975276816622e+03
-1.147182023557960e+03 -1.144351904347690e+02 -2.918975276816622e+03
-1.147618171072341e+03 -1.158181498118800e+02 -2.918975276816622e+03
-1.147412162551392e+03 -1.183744012107347e+02 -2.918975276816622e+03
-1.147617848912402e+03 -1.203236123868043e+02 -2.918975276816622e+03
-1.147875204463444e+03 -1.213744167143407e+02 -2.918975276816622e+03
-1.147982002319178e+03 -1.232749024487591e+02 -2.918975276816622e+03
-1.147707912589814e+03 -1.247688407971229e+02 -2.918975276816622e+03
-1.147339094557105e+03 -1.271650709172443e+02 -2.918975276816622e+03
-1.148003952825859e+03 -1.272145219101414e+02 -2.918975276816622e+03
-1.148031684391022e+03 -1.296724830487106e+02 -2.918975276816622e+03
-1.147599843907994e+03 -1.304117288268722e+02 -2.918975276816622e+03
-1.147672769206682e+03 -1.320467560450982e+02 -2.918975276816622e+03
-1.147768946466932e+03 -1.339684797913729e+02 -2.918975276816622e+03
-1.147192445495655e+03 -1.344374263611409e+02 -2.918975276816622e+03
-1.147614512261047e+03 -1.357886029203615e+02 -2.918975276816622e+03
-1.147368449043741e+03 -1.384953620700763e+02 -2.918975276816622e+03
-1.147858565485552e+03 -1.402570072065313e+02 -2.918975276816622e+03
-1.147946294882559e+03 -1.413129785909656e+02 -2.918975276816622e+03
-1.148025591813534e+03 -1.432356597782714e+02 -2.918975276816622e+03
-1.147685023104992e+03 -1.441962210738570e+02 -2.918975276816622e+03
-1.147535626460821e+03 -1.460794833974625e+02 -2.918975276816622e+03
-1.147994539117104e+03 -1.471540604739808e+02 -2.918975276816622e+03
-1.147963268598801e+03 -1.496699011470929e+02 -2.918975276816622e+03
-1.147739024530298e+03 -1.503915514661941e+02 -2.918975276816622e+03
-1.147657456656248e+03 -1.519268416506480e+02 -2.918975276816622e+03
-1.147897875840538e+03 -1.541406483105597e+02 -2.918975276816622e+03
-1.147266365378675e+03 -1.548001162017335e+02 -2.918975276816622e+03
-1.147227575089446e+03 -1.558351138894294e+02 -2.918975276816622e+03
-1.146781246450619e+03 -1.577422049126011e+02 -2.918975276816622e+03
-1.147437209954390e+03 -1.582971063636018e+02 -2.918975276816622e+03
-1.147657120019808e+03 -1.602571351919070e+02 -2.918975276816622e+03
-1.147887797959003e+03 -1.613094565442577e+02 -2.918975276816622e+03
-1.147988735947074e+03 -1.632132419271838e+02 -2.918975276816622e+03
-1.147729482742565e+03 -1.647132733003026e+02 -2.918975276816622e+03
-1.147367874713358e+03 -1.671073374434184e+02 -2.918975276816622e+03
-1.148053520542259e+03 -1.671491636050150e+02 -2.918975276816622e+03
-1.148081695901469e+03 -1.696324044569907e+02 -2.918975276816622e+03
-1.147732581485314e+03 -1.704235067487331e+02 -2.918975276816622e+03
-1.147917895578498e+03 -1.720408979902423e+02 -2.918975276816622e+03
-1.148472058710882e+03 -1.737696528637067e+02 -2.918975276816622e+03
-1.147626423370630e+03 -1.742023417302775e+02 -2.918975276816622e+03
-1.147784974323937e+03 -1.757297700391479e+02 -2.918975276816622e+03
-1.147477408142808e+03 -1.782990580056273e+02 -2.918975276816622e+03
-1.147647053311167e+03 -1.802284549436673e+02 -2.918975276816622e+03
-1.147896435310777e+03 -1.812757430111993e+02 -2.918975276816622e+03
-1.147994157355808e+03 -1.831821942593508e+02 -2.918975276816622e+03
-1.147716762898601e+03 -1.846763638134695e+02 -2.918975276816622e+03
-1.147300860152448e+03 -1.870150663060438e+02 -2.918975276816622e+03
-1.148014020424482e+03 -1.871166039818926e+02 -2.918975276816622e+03
-1.147947530888746e+03 -1.895547147836290e+02 -2.918975276816622e+03
-1.147595255021361e+03 -1.902763246544201e+02 -2.918975276816622e+03
-1.147665625331819e+03 -1.918558483443431e+02 -2.918975276816622e+03
-1.147873850642163e+03 -1.941086133891886e+02 -2.918975276816622e+03
-1.147343546424512e+03 -1.948173933860119e+02 -2.918975276816622e+03
-1.147113518636472e+03 -1.957449826167639e+02 -2.918975276816622e+03
-1.146503821325950e+03 -1.979244794701515e+02 -2.918975276816622e+03
-1.147355893043540e+03 -1.983848840749859e+02 -2.918975276816622e+03
-1.147805089423596e+03 -2.001416548014695e+02 -2.918975276816622e+03
-1.147934794158928e+03 -2.012108665801917e+02 -2.918975276816622e+03
-1.148033179645009e+03 -2.031416036832414e+02 -2.918975276816622e+03
-1.147704252685969e+03 -2.040918587616069e+02 -2.918975276816622e+03
-1.147661400134473e+03 -2.059887114827307e+02 -2.918975276816622e+03
[...]
POINT_DATA 4108
VECTORS PK_force double
0.000000000000000e+00 0.000000000000000e+00 0.000000000000000e+00
0.000000000000000e+00 0.000000000000000e+00 0.000000000000000e+00
0.000000000000000e+00 0.000000000000000e+00 0.000000000000000e+00
0.000000000000000e+00 0.000000000000000e+00 0.000000000000000e+00
0.000000000000000e+00 0.000000000000000e+00 0.000000000000000e+00
0.000000000000000e+00 0.000000000000000e+00 0.000000000000000e+00
0.000000000000000e+00 0.000000000000000e+00 0.000000000000000e+00
0.000000000000000e+00 0.000000000000000e+00 0.000000000000000e+00
0.000000000000000e+00 0.000000000000000e+00 0.000000000000000e+00
0.000000000000000e+00 0.000000000000000e+00 0.000000000000000e+00
0.000000000000000e+00 0.000000000000000e+00 0.000000000000000e+00
0.000000000000000e+00 0.000000000000000e+00 0.000000000000000e+00
0.000000000000000e+00 0.000000000000000e+00 0.000000000000000e+00
0.000000000000000e+00 0.000000000000000e+00 0.000000000000000e+00
0.000000000000000e+00 0.000000000000000e+00 0.000000000000000e+00
0.000000000000000e+00 0.000000000000000e+00 0.000000000000000e+00
0.000000000000000e+00 0.000000000000000e+00 0.000000000000000e+00
0.000000000000000e+00 0.000000000000000e+00 0.000000000000000e+00
0.000000000000000e+00 0.000000000000000e+00 0.000000000000000e+00
0.000000000000000e+00 0.000000000000000e+00 0.000000000000000e+00
0.000000000000000e+00 0.000000000000000e+00 0.000000000000000e+00
0.000000000000000e+00 0.000000000000000e+00 0.000000000000000e+00
0.000000000000000e+00 0.000000000000000e+00 0.000000000000000e+00
0.000000000000000e+00 0.000000000000000e+00 0.000000000000000e+00
0.000000000000000e+00 0.000000000000000e+00 0.000000000000000e+00
0.000000000000000e+00 0.000000000000000e+00 0.000000000000000e+00
0.000000000000000e+00 0.000000000000000e+00 0.000000000000000e+00
0.000000000000000e+00 0.000000000000000e+00 0.000000000000000e+00
0.000000000000000e+00 0.000000000000000e+00 0.000000000000000e+00
0.000000000000000e+00 0.000000000000000e+00 0.000000000000000e+00
0.000000000000000e+00 0.000000000000000e+00 0.000000000000000e+00
0.000000000000000e+00 0.000000000000000e+00 0.000000000000000e+00
0.000000000000000e+00 0.000000000000000e+00 0.000000000000000e+00
0.000000000000000e+00 0.000000000000000e+00 0.000000000000000e+00
0.000000000000000e+00 0.000000000000000e+00 0.000000000000000e+00
0.000000000000000e+00 0.000000000000000e+00 0.000000000000000e+00
0.000000000000000e+00 0.000000000000000e+00 0.000000000000000e+00
0.000000000000000e+00 0.000000000000000e+00 0.000000000000000e+00
0.000000000000000e+00 0.000000000000000e+00 0.000000000000000e+00
0.000000000000000e+00 0.000000000000000e+00 0.000000000000000e+00
0.000000000000000e+00 0.000000000000000e+00 0.000000000000000e+00
0.000000000000000e+00 0.000000000000000e+00 0.000000000000000e+00
0.000000000000000e+00 0.000000000000000e+00 0.000000000000000e+00
0.000000000000000e+00 0.000000000000000e+00 0.000000000000000e+00
0.000000000000000e+00 0.000000000000000e+00 0.000000000000000e+00
0.000000000000000e+00 0.000000000000000e+00 0.000000000000000e+00
0.000000000000000e+00 0.000000000000000e+00 0.000000000000000e+00
0.000000000000000e+00 0.000000000000000e+00 0.000000000000000e+00
0.000000000000000e+00 0.000000000000000e+00 0.000000000000000e+00
0.000000000000000e+00 0.000000000000000e+00 0.000000000000000e+00
0.000000000000000e+00 0.000000000000000e+00 0.000000000000000e+00
0.000000000000000e+00 0.000000000000000e+00 0.000000000000000e+00
0.000000000000000e+00 0.000000000000000e+00 0.000000000000000e+00
0.000000000000000e+00 0.000000000000000e+00 0.000000000000000e+00
0.000000000000000e+00 0.000000000000000e+00 0.000000000000000e+00
0.000000000000000e+00 0.000000000000000e+00 0.000000000000000e+00
0.000000000000000e+00 0.000000000000000e+00 0.000000000000000e+00
0.000000000000000e+00 0.000000000000000e+00 0.000000000000000e+00
0.000000000000000e+00 0.000000000000000e+00 0.000000000000000e+00
0.000000000000000e+00 0.000000000000000e+00 0.000000000000000e+00
0.000000000000000e+00 0.000000000000000e+00 0.000000000000000e+00
0.000000000000000e+00 0.000000000000000e+00 0.000000000000000e+00
0.000000000000000e+00 0.000000000000000e+00 0.000000000000000e+00
0.000000000000000e+00 0.000000000000000e+00 0.000000000000000e+00
0.000000000000000e+00 0.000000000000000e+00 0.000000000000000e+00
0.000000000000000e+00 0.000000000000000e+00 0.000000000000000e+00
0.000000000000000e+00 0.000000000000000e+00 0.000000000000000e+00
0.000000000000000e+00 0.000000000000000e+00 0.000000000000000e+00
0.000000000000000e+00 0.000000000000000e+00 0.000000000000000e+00
0.000000000000000e+00 0.000000000000000e+00 0.000000000000000e+00
0.000000000000000e+00 0.000000000000000e+00 0.000000000000000e+00
0.000000000000000e+00 0.000000000000000e+00 0.000000000000000e+00
0.000000000000000e+00 0.000000000000000e+00 0.000000000000000e+00
0.000000000000000e+00 0.000000000000000e+00 0.000000000000000e+00
0.000000000000000e+00 0.000000000000000e+00 0.000000000000000e+00
0.000000000000000e+00 0.000000000000000e+00 0.000000000000000e+00
0.000000000000000e+00 0.000000000000000e+00 0.000000000000000e+00
0.000000000000000e+00 0.000000000000000e+00 0.000000000000000e+00
0.000000000000000e+00 0.000000000000000e+00 0.000000000000000e+00
0.000000000000000e+00 0.000000000000000e+00 0.000000000000000e+00
0.000000000000000e+00 0.000000000000000e+00 0.000000000000000e+00
0.000000000000000e+00 0.000000000000000e+00 0.000000000000000e+00
0.000000000000000e+00 0.000000000000000e+00 0.000000000000000e+00
0.000000000000000e+00 0.000000000000000e+00 0.000000000000000e+00
0.000000000000000e+00 0.000000000000000e+00 0.000000000000000e+00
0.000000000000000e+00 0.000000000000000e+00 0.000000000000000e+00
0.000000000000000e+00 0.000000000000000e+00 0.000000000000000e+00
0.000000000000000e+00 0.000000000000000e+00 0.000000000000000e+00
0.000000000000000e+00 0.000000000000000e+00 0.000000000000000e+00
0.000000000000000e+00 0.000000000000000e+00 0.000000000000000e+00
0.000000000000000e+00 0.000000000000000e+00 0.000000000000000e+00
0.000000000000000e+00 0.000000000000000e+00 0.000000000000000e+00
0.000000000000000e+00 0.000000000000000e+00 0.000000000000000e+00
0.000000000000000e+00 0.000000000000000e+00 0.000000000000000e+00
0.000000000000000e+00 0.000000000000000e+00 0.000000000000000e+00
0.000000000000000e+00 0.000000000000000e+00 0.000000000000000e+00
0.000000000000000e+00 0.000000000000000e+00 0.000000000000000e+00
0.000000000000000e+00 0.000000000000000e+00 0.000000000000000e+00
0.000000000000000e+00 0.000000000000000e+00 0.000000000000000e+00
0.000000000000000e+00 0.000000000000000e+00 0.000000000000000e+00
0.000000000000000e+00 0.000000000000000e+00 0.000000000000000e+00
0.000000000000000e+00 0.000000000000000e+00 0.000000000000000e+00
0.000000000000000e+00 0.000000000000000e+00 0.000000000000000e+00
0.000000000000000e+00 0.000000000000000e+00 0.000000000000000e+00
0.000000000000000e+00 0.000000000000000e+00 0.000000000000000e+00
0.000000000000000e+00 0.000000000000000e+00 0.000000000000000e+00
0.000000000000000e+00 0.000000000000000e+00 0.000000000000000e+00
0.000000000000000e+00 0.000000000000000e+00 0.000000000000000e+00
0.000000000000000e+00 0.000000000000000e+00 0.000000000000000e+00
0.000000000000000e+00 0.000000000000000e+00 0.000000000000000e+00
0.000000000000000e+00 0.000000000000000e+00 0.000000000000000e+00
0.000000000000000e+00 0.000000000000000e+00 0.000000000000000e+00
0.000000000000000e+00 0.000000000000000e+00 0.000000000000000e+00
0.000000000000000e+00 0.000000000000000e+00 0.000000000000000e+00
0.000000000000000e+00 0.000000000000000e+00 0.000000000000000e+00
0.000000000000000e+00 0.000000000000000e+00 0.000000000000000e+00
0.000000000000000e+00 0.000000000000000e+00 0.000000000000000e+00
0.000000000000000e+00 0.000000000000000e+00 0.000000000000000e+00
0.000000000000000e+00 0.000000000000000e+00 0.000000000000000e+00
0.000000000000000e+00 0.000000000000000e+00 0.000000000000000e+00
0.000000000000000e+00 0.000000000000000e+00 0.000000000000000e+00
0.000000000000000e+00 0.000000000000000e+00 0.000000000000000e+00
0.000000000000000e+00 0.000000000000000e+00 0.000000000000000e+00
0.000000000000000e+00 0.000000000000000e+00 0.000000000000000e+00
0.000000000000000e+00 0.000000000000000e+00 0.000000000000000e+00
0.000000000000000e+00 0.000000000000000e+00 0.000000000000000e+00
0.000000000000000e+00 0.000000000000000e+00 0.000000000000000e+00
0.000000000000000e+00 0.000000000000000e+00 0.000000000000000e+00
0.000000000000000e+00 0.000000000000000e+00 0.000000000000000e+00
0.000000000000000e+00 0.000000000000000e+00 0.000000000000000e+00
0.000000000000000e+00 0.000000000000000e+00 0.000000000000000e+00
0.000000000000000e+00 0.000000000000000e+00 0.000000000000000e+00
0.000000000000000e+00 0.000000000000000e+00 0.000000000000000e+00
0.000000000000000e+00 0.000000000000000e+00 0.000000000000000e+00
0.000000000000000e+00 0.000000000000000e+00 0.000000000000000e+00
0.000000000000000e+00 0.000000000000000e+00 0.000000000000000e+00
0.000000000000000e+00 0.000000000000000e+00 0.000000000000000e+00
0.000000000000000e+00 0.000000000000000e+00 0.000000000000000e+00
0.000000000000000e+00 0.000000000000000e+00 0.000000000000000e+00
0.000000000000000e+00 0.000000000000000e+00 0.000000000000000e+00
0.000000000000000e+00 0.000000000000000e+00 0.000000000000000e+00
0.000000000000000e+00 0.000000000000000e+00 0.000000000000000e+00
0.000000000000000e+00 0.000000000000000e+00 0.000000000000000e+00
0.000000000000000e+00 0.000000000000000e+00 0.000000000000000e+00
0.000000000000000e+00 0.000000000000000e+00 0.000000000000000e+00
0.000000000000000e+00 0.000000000000000e+00 0.000000000000000e+00
0.000000000000000e+00 0.000000000000000e+00 0.000000000000000e+00
0.000000000000000e+00 0.000000000000000e+00 0.000000000000000e+00
0.000000000000000e+00 0.000000000000000e+00 0.000000000000000e+00
0.000000000000000e+00 0.000000000000000e+00 0.000000000000000e+00
0.000000000000000e+00 0.000000000000000e+00 0.000000000000000e+00
0.000000000000000e+00 0.000000000000000e+00 0.000000000000000e+00
0.000000000000000e+00 0.000000000000000e+00 0.000000000000000e+00
0.000000000000000e+00 0.000000000000000e+00 0.000000000000000e+00
0.000000000000000e+00 0.000000000000000e+00 0.000000000000000e+00
0.000000000000000e+00 0.000000000000000e+00 0.000000000000000e+00
0.000000000000000e+00 0.000000000000000e+00 0.000000000000000e+00
0.000000000000000e+00 0.000000000000000e+00 0.000000000000000e+00
0.000000000000000e+00 0.000000000000000e+00 0.000000000000000e+00
0.000000000000000e+00 0.000000000000000e+00 0.000000000000000e+00
0.000000000000000e+00 0.000000000000000e+00 0.000000000000000e+00
0.000000000000000e+00 0.000000000000000e+00 0.000000000000000e+00
0.000000000000000e+00 0.000000000000000e+00 0.000000000000000e+00
0.000000000000000e+00 0.000000000000000e+00 0.000000000000000e+00
0.000000000000000e+00 0.000000000000000e+00 0.000000000000000e+00
0.000000000000000e+00 0.000000000000000e+00 0.000000000000000e+00
0.000000000000000e+00 0.000000000000000e+00 0.000000000000000e+00
0.000000000000000e+00 0.000000000000000e+00 0.000000000000000e+00
0.000000000000000e+00 0.000000000000000e+00 0.000000000000000e+00
0.000000000000000e+00 0.000000000000000e+00 0.000000000000000e+00
0.000000000000000e+00 0.000000000000000e+00 0.000000000000000e+00
0.000000000000000e+00 0.000000000000000e+00 0.000000000000000e+00
0.000000000000000e+00 0.000000000000000e+00 0.000000000000000e+00
0.000000000000000e+00 0.000000000000000e+00 0.000000000000000e+00
0.000000000000000e+00 0.000000000000000e+00 0.000000000000000e+00
0.000000000000000e+00 0.000000000000000e+00 0.000000000000000e+00
0.000000000000000e+00 0.000000000000000e+00 0.000000000000000e+00
0.000000000000000e+00 0.000000000000000e+00 0.000000000000000e+00
0.000000000000000e+00 0.000000000000000e+00 0.000000000000000e+00
0.000000000000000e+00 0.000000000000000e+00 0.000000000000000e+00
0.000000000000000e+00 0.000000000000000e+00 0.000000000000000e+00
0.000000000000000e+00 0.000000000000000e+00 0.000000000000000e+00
0.000000000000000e+00 0.000000000000000e+00 0.000000000000000e+00
0.000000000000000e+00 0.000000000000000e+00 0.000000000000000e+00
0.000000000000000e+00 0.000000000000000e+00 0.000000000000000e+00
0.000000000000000e+00 0.000000000000000e+00 0.000000000000000e+00
0.000000000000000e+00 0.000000000000000e+00 0.000000000000000e+00
0.000000000000000e+00 0.000000000000000e+00 0.000000000000000e+00
0.000000000000000e+00 0.000000000000000e+00 0.000000000000000e+00
0.000000000000000e+00 0.000000000000000e+00 0.000000000000000e+00
0.000000000000000e+00 0.000000000000000e+00 0.000000000000000e+00
0.000000000000000e+00 0.000000000000000e+00 0.000000000000000e+00
0.000000000000000e+00 0.000000000000000e+00 0.000000000000000e+00
0.000000000000000e+00 0.000000000000000e+00 0.000000000000000e+00
0.000000000000000e+00 0.000000000000000e+00 0.000000000000000e+00
0.000000000000000e+00 0.000000000000000e+00 0.000000000000000e+00
0.000000000000000e+00 0.000000000000000e+00 0.000000000000000e+00
0.000000000000000e+00 0.000000000000000e+00 0.000000000000000e+00
0.000000000000000e+00 0.000000000000000e+00 0.000000000000000e+00
0.000000000000000e+00 0.000000000000000e+00 0.000000000000000e+00
0.000000000000000e+00 0.000000000000000e+00 0.000000000000000e+00
0.000000000000000e+00 0.000000000000000e+00 0.000000000000000e+00
0.000000000000000e+00 0.000000000000000e+00 0.000000000000000e+00
0.000000000000000e+00 0.000000000000000e+00 0.000000000000000e+00
0.000000000000000e+00 0.000000000000000e+00 0.000000000000000e+00
0.000000000000000e+00 0.000000000000000e+00 0.000000000000000e+00
0.000000000000000e+00 0.000000000000000e+00 0.000000000000000e+00
0.000000000000000e+00 0.000000000000000e+00 0.000000000000000e+00
0.000000000000000e+00 0.000000000000000e+00 0.000000000000000e+00
0.000000000000000e+00 0.000000000000000e+00 0.000000000000000e+00
0.000000000000000e+00 0.000000000000000e+00 0.000000000000000e+00
0.000000000000000e+00 0.000000000000000e+00 0.000000000000000e+00
0.000000000000000e+00 0.000000000000000e+00 0.000000000000000e+00
0.000000000000000e+00 0.000000000000000e+00 0.000000000000000e+00
0.000000000000000e+00 0.000000000000000e+00 0.000000000000000e+00
0.000000000000000e+00 0.000000000000000e+00 0.000000000000000e+00
0.000000000000000e+00 0.000000000000000e+00 0.000000000000000e+00
0.000000000000000e+00 0.000000000000000e+00 0.000000000000000e+00
0.000000000000000e+00 0.000000000000000e+00 0.000000000000000e+00
0.000000000000000e+00 0.000000000000000e+00 0.000000000000000e+00
0.000000000000000e+00 0.000000000000000e+00 0.000000000000000e+00
0.000000000000000e+00 0.000000000000000e+00 0.000000000000000e+00
0.000000000000000e+00 0.000000000000000e+00 0.000000000000000e+00
0.000000000000000e+00 0.000000000000000e+00 0.000000000000000e+00
0.000000000000000e+00 0.000000000000000e+00 0.000000000000000e+00
0.000000000000000e+00 0.000000000000000e+00 0.000000000000000e+00
0.000000000000000e+00 0.000000000000000e+00 0.000000000000000e+00
0.000000000000000e+00 0.000000000000000e+00 0.000000000000000e+00
0.000000000000000e+00 0.000000000000000e+00 0.000000000000000e+00
0.000000000000000e+00 0.000000000000000e+00 0.000000000000000e+00
0.000000000000000e+00 0.000000000000000e+00 0.000000000000000e+00
0.000000000000000e+00 0.000000000000000e+00 0.000000000000000e+00
0.000000000000000e+00 0.000000000000000e+00 0.000000000000000e+00
0.000000000000000e+00 0.000000000000000e+00 0.000000000000000e+00
0.000000000000000e+00 0.000000000000000e+00 0.000000000000000e+00
0.000000000000000e+00 0.000000000000000e+00 0.000000000000000e+00
0.000000000000000e+00 0.000000000000000e+00 0.000000000000000e+00
0.000000000000000e+00 0.000000000000000e+00 0.000000000000000e+00
0.000000000000000e+00 0.000000000000000e+00 0.000000000000000e+00
0.000000000000000e+00 0.000000000000000e+00 0.000000000000000e+00
0.000000000000000e+00 0.000000000000000e+00 0.000000000000000e+00
0.000000000000000e+00 0.000000000000000e+00 0.000000000000000e+00
0.000000000000000e+00 0.000000000000000e+00 0.000000000000000e+00
0.000000000000000e+00 0.000000000000000e+00 0.000000000000000e+00
0.000000000000000e+00 0.000000000000000e+00 0.000000000000000e+00
0.000000000000000e+00 0.000000000000000e+00 0.000000000000000e+00
0.000000000000000e+00 0.000000000000000e+00 0.000000000000000e+00
0.000000000000000e+00 0.000000000000000e+00 0.000000000000000e+00
0.000000000000000e+00 0.000000000000000e+00 0.000000000000000e+00
0.000000000000000e+00 0.000000000000000e+00 0.000000000000000e+00
0.000000000000000e+00 0.000000000000000e+00 0.000000000000000e+00
0.000000000000000e+00 0.000000000000000e+00 0.000000000000000e+00
0.000000000000000e+00 0.000000000000000e+00 0.000000000000000e+00
0.000000000000000e+00 0.000000000000000e+00 0.000000000000000e+00
0.000000000000000e+00 0.000000000000000e+00 0.000000000000000e+00
0.000000000000000e+00 0.000000000000000e+00 0.000000000000000e+00
0.000000000000000e+00 0.000000000000000e+00 0.000000000000000e+00
0.000000000000000e+00 0.000000000000000e+00 0.000000000000000e+00
0.000000000000000e+00 0.000000000000000e+00 0.000000000000000e+00
0.000000000000000e+00 0.000000000000000e+00 0.000000000000000e+00
0.000000000000000e+00 0.000000000000000e+00 0.000000000000000e+00
0.000000000000000e+00 0.000000000000000e+00 0.000000000000000e+00
0.000000000000000e+00 0.000000000000000e+00 0.000000000000000e+00
0.000000000000000e+00 0.000000000000000e+00 0.000000000000000e+00
0.000000000000000e+00 0.000000000000000e+00 0.000000000000000e+00
0.000000000000000e+00 0.000000000000000e+00 0.000000000000000e+00
0.000000000000000e+00 0.000000000000000e+00 0.000000000000000e+00
0.000000000000000e+00 0.000000000000000e+00 0.000000000000000e+00
0.000000000000000e+00 0.000000000000000e+00 0.000000000000000e+00
0.000000000000000e+00 0.000000000000000e+00 0.000000000000000e+00
0.000000000000000e+00 0.000000000000000e+00 0.000000000000000e+00
0.000000000000000e+00 0.000000000000000e+00 0.000000000000000e+00
0.000000000000000e+00 0.000000000000000e+00 0.000000000000000e+00
0.000000000000000e+00 0.000000000000000e+00 0.000000000000000e+00
0.000000000000000e+00 0.000000000000000e+00 0.000000000000000e+00
0.000000000000000e+00 0.000000000000000e+00 0.000000000000000e+00
0.000000000000000e+00 0.000000000000000e+00 0.000000000000000e+00
0.000000000000000e+00 0.000000000000000e+00 0.000000000000000e+00
0.000000000000000e+00 0.000000000000000e+00 0.000000000000000e+00
0.000000000000000e+00 0.000000000000000e+00 0.000000000000000e+00
0.000000000000000e+00 0.000000000000000e+00 0.000000000000000e+00
0.000000000000000e+00 0.000000000000000e+00 0.000000000000000e+00
0.000000000000000e+00 0.000000000000000e+00 0.000000000000000e+00
0.000000000000000e+00 0.000000000000000e+00 0.000000000000000e+00
0.000000000000000e+00 0.000000000000000e+00 0.000000000000000e+00
0.000000000000000e+00 0.000000000000000e+00 0.000000000000000e+00
0.000000000000000e+00 0.000000000000000e+00 0.000000000000000e+00
0.000000000000000e+00 0.000000000000000e+00 0.000000000000000e+00
0.000000000000000e+00 0.000000000000000e+00 0.000000000000000e+00
0.000000000000000e+00 0.000000000000000e+00 0.000000000000000e+00
0.000000000000000e+00 0.000000000000000e+00 0.000000000000000e+00
0.000000000000000e+00 0.000000000000000e+00 0.000000000000000e+00
0.000000000000000e+00 0.000000000000000e+00 0.000000000000000e+00
0.000000000000000e+00 0.000000000000000e+00 0.000000000000000e+00
0.000000000000000e+00 0.000000000000000e+00 0.000000000000000e+00
0.000000000000000e+00 0.000000000000000e+00 0.000000000000000e+00
0.000000000000000e+00 0.000000000000000e+00 0.000000000000000e+00
0.000000000000000e+00 0.000000000000000e+00 0.000000000000000e+00
0.000000000000000e+00 0.000000000000000e+00 0.000000000000000e+00
0.000000000000000e+00 0.000000000000000e+00 0.000000000000000e+00
0.000000000000000e+00 0.000000000000000e+00 0.000000000000000e+00
0.000000000000000e+00 0.000000000000000e+00 0.000000000000000e+00